----- GAMESS execution script 'rungms' -----
This job is running on host chemcompute-node-0.novalocal
under operating system Linux at Sun Nov 14 21:54:03 UTC 2021
SLURM has assigned the following compute nodes to this run:
chemcompute-node-0
Available scratch disk space (Kbyte units) at beginning of the job is
Filesystem     1K-blocks     Used Available Use% Mounted on
/dev/sda1       62903276 16959284  45943992  27% /
GAMESS temporary binary files will be written to /scratch/306538
GAMESS supplementary output files will be written to /data/slurm/342549
Copying input file 342549.inp to your run's scratch directory...
The generated host list is
chemcompute-node-0.novalocal

 Distributed Data Interface kickoff program.
 Initiating 1 compute processes on 1 nodes to run the following command:
 /data/gamess-2019R1-ddi/gamess.00.x 342549 

          ******************************************************
          *         GAMESS VERSION = 30 JUN 2019 (R1)          *
          *             FROM IOWA STATE UNIVERSITY             *
          * M.W.SCHMIDT, K.K.BALDRIDGE, J.A.BOATZ, S.T.ELBERT, *
          *   M.S.GORDON, J.H.JENSEN, S.KOSEKI, N.MATSUNAGA,   *
          *          K.A.NGUYEN, S.J.SU, T.L.WINDUS,           *
          *       TOGETHER WITH M.DUPUIS, J.A.MONTGOMERY       *
          *         J.COMPUT.CHEM.  14, 1347-1363(1993)        *
          **************** 64 BIT LINUX VERSION ****************

  SINCE 1993, STUDENTS AND POSTDOCS WORKING AT IOWA STATE UNIVERSITY
  AND ALSO IN THEIR VARIOUS JOBS AFTER LEAVING ISU HAVE MADE IMPORTANT
  CONTRIBUTIONS TO THE CODE:
     IVANA ADAMOVIC, CHRISTINE AIKENS, YURI ALEXEEV, POOJA ARORA,
     ANDREY ASADCHEV, ROB BELL, PRADIPTA BANDYOPADHYAY, JONATHAN BENTZ,
     COLLEEN BERTONI, BRETT BODE, KURT BRORSEN, CALEB CARLIN, GALINA CHABAN,
     WEI CHEN, CHEOL HO CHOI, PAUL DAY, ALBERT DEFUSCO, NUWAN DESILVA,
     TIM DUDLEY, DMITRI FEDOROV, ALEX FINDLATER, GRAHAM FLETCHER, 
     MARK FREITAG, KURT GLAESEMANN, ANASTASIA GUNINA,
     DAN KEMP, GRANT MERRILL, NORIYUKI MINEZAWA, JONATHAN MULLIN,
     TAKESHI NAGATA, SEAN NEDD, HEATHER NETZLOFF, BOSILJKA NJEGIC, RYAN OLSON,
     MIKE PAK, BUU PHAM,
     SPENCER PRUITT, LUKE ROSKOP, JIM SHOEMAKER, LYUDMILA SLIPCHENKO,
     TONY SMITH, SAROM SOK LEANG, JIE SONG, TETSUYA TAKETSUGU, SIMON WEBB,
     PENG XU, SOOHAENG YOO, FEDERICO ZAHARIEV

  ADDITIONAL CODE HAS BEEN PROVIDED BY COLLABORATORS IN OTHER GROUPS:
     IOWA STATE UNIVERSITY:
          JOE IVANIC, AARON WEST, LAIMUTIS BYTAUTAS, KLAUS RUEDENBERG
     UNIVERSITY OF TOKYO: KIMIHIKO HIRAO, TAKAHITO NAKAJIMA,
          TAKAO TSUNEDA, MUNEAKI KAMIYA, SUSUMU YANAGISAWA,
          KIYOSHI YAGI, MAHITO CHIBA, SEIKEN TOKURA, NAOAKI KAWAKAMI
     UNIVERSITY OF AARHUS: FRANK JENSEN
     UNIVERSITY OF IOWA: VISVALDAS KAIRYS, HUI LI
     NATIONAL INST. OF STANDARDS AND TECHNOLOGY: WALT STEVENS, DAVID GARMER
     UNIVERSITY OF PISA: BENEDETTA MENNUCCI, JACOPO TOMASI
     UNIVERSITY OF MEMPHIS: HENRY KURTZ, PRAKASHAN KORAMBATH
     UNIVERSITY OF ALBERTA: TOBY ZENG, MARIUSZ KLOBUKOWSKI
     UNIVERSITY OF NEW ENGLAND: MARK SPACKMAN
     MIE UNIVERSITY: HIROAKI UMEDA
     NAT. INST. OF ADVANCED INDUSTRIAL SCIENCE AND TECHNOLOGY: KAZUO KITAURA
     MICHIGAN STATE UNIVERSITY:
          KAROL KOWALSKI, MARTA WLOCH, JEFFREY GOUR, JESSE LUTZ,
          WEI LI, JUN SHEN, J. EMILIANO DEUSTUA, PIOTR PIECUCH
     UNIVERSITY OF MINNESOTA:
          YINAN SHU
     UNIVERSITY OF SILESIA: MONIKA MUSIAL, STANISLAW KUCHARSKI
     FACULTES UNIVERSITAIRES NOTRE-DAME DE LA PAIX:
          OLIVIER QUINET, BENOIT CHAMPAGNE
     UNIVERSITY OF CALIFORNIA - SANTA BARBARA: BERNARD KIRTMAN
     INSTITUTE FOR MOLECULAR SCIENCE:
          KAZUYA ISHIMURA, MICHIO KATOUDA, AND SHIGERU NAGASE
     UNIVERSITY OF NOTRE DAME: ANNA POMOGAEVA, DAN CHIPMAN
     KYUSHU UNIVERSITY:
          HARUYUKI NAKANO,
          FENG LONG GU, JACEK KORCHOWIEC, MARCIN MAKOWSKI, AND YURIKO AOKI,
          HIROTOSHI MORI AND EISAKU MIYOSHI
     PENNSYLVANIA STATE UNIVERSITY:
          TZVETELIN IORDANOV, CHET SWALINA, JONATHAN SKONE,
          SHARON HAMMES-SCHIFFER
     WASEDA UNIVERSITY:
          MASATO KOBAYASHI, TOMOKO AKAMA, TSUGUKI TOUMA,
          TAKESHI YOSHIKAWA, YASUHIRO IKABATA, JUNJI SEINO,
          YUYA NAKAJIMA, HIROMI NAKAI
     NANJING UNIVERSITY: SHUHUA LI
     UNIVERSITY OF NEBRASKA:
          PEIFENG SU, DEJUN SI, NANDUN THELLAMUREGE, YALI WANG, HUI LI
     UNIVERSITY OF ZURICH: ROBERTO PEVERATI, KIM BALDRIDGE
     N. COPERNICUS UNIVERSITY AND JACKSON STATE UNIVERSITY:
          MARIA BARYSZ
     UNIVERSITY OF COPENHAGEN: Jimmy Kromann, CASPER STEINMANN
     TOKYO INSTITUTE OF TECHNOLOGY: HIROYA NAKATA
     NAGOYA UNIVERSITY: YOSHIO NISHIMOTO, STEPHAN IRLE
     MOSCOW STATE UNIVERSITY: VLADIMIR MIRONOV
     A.N.NESMEYANOV INSTITUTE OF ORGANOELEMENT COMPOUNDS OF RUSSIAN ACADEMY OF SCIENCES:
          IGOR S. GERASIMOV

 EXECUTION OF GAMESS BEGUN Sun Nov 14 21:54:04 2021

            ECHO OF THE FIRST FEW INPUT CARDS -
 INPUT CARD>!File created by the GAMESS Input Deck Generator Plugin for Avogadro            
 INPUT CARD> $BASIS GBASIS=STO NGAUSS=3 $END                                                
 INPUT CARD> $CONTRL SCFTYP=RHF RUNTYP=SADPOINT $END                                        
 INPUT CARD> $STATPT hssend=.t. OPTTOL=0.0005 NSTEP=50 $END                                 
 INPUT CARD> $STATPT HESS=calc ihrep=5 $END                                                 
 INPUT CARD> $FORCE nvib=2 $END                                                             
 INPUT CARD> $ZMAT DLC=.t. auto=.t. nonvdw(1)=1,6,3,4,4,5,5,6,1,2,2,3 $END                  
 INPUT CARD>!$ZMAT IFZMAT(1)=1,1,6,1,3,4 fvalue(1)=2.00,2.00 $END                           
 INPUT CARD>                                                                                
 INPUT CARD>                                                                                
 INPUT CARD> $DATA                                                                          
 INPUT CARD>Title                                                                           
 INPUT CARD>C1                                                                              
 INPUT CARD>C     6.0     3.60323048     0.12533462    -2.37279081                          
 INPUT CARD>C     6.0     2.61589193    -0.66348153    -1.77137446                          
 INPUT CARD>C     6.0     1.64764786    -0.06073001    -0.95995623                          
 INPUT CARD>C     6.0     2.64533520     0.79331636     0.54842860                          
 INPUT CARD>C     6.0     3.99533463     0.52560496     0.29068387                          
 INPUT CARD>C     6.0     4.53724766     1.07436252    -0.88049108                          
 INPUT CARD>C     6.0     4.11483479     2.48899722    -1.18198240                          
 INPUT CARD>C     6.0     3.04844284     3.02936554    -0.62769765                          
 INPUT CARD>C     6.0     2.18269086     2.24011540     0.32721400                          
 INPUT CARD>O     8.0     1.19344604     2.70800209     0.87516320                          
 INPUT CARD>H     1.0     4.40659237    -0.38347289    -2.89536214                          
 INPUT CARD>H     1.0     3.28660512     1.03184211    -2.87394428                          
 INPUT CARD>H     1.0     2.87135291    -1.69373524    -1.55212355                          
 INPUT CARD>H     1.0     1.18345737     0.84705329    -1.32674801                          
 INPUT CARD>H     1.0     0.94933677    -0.70418876    -0.43558761                          
 INPUT CARD>H     1.0     2.19181061     0.32738262     1.41848397                          
 INPUT CARD>H     1.0     4.44581509    -0.36495826     0.71164417                          
 INPUT CARD>H     1.0     5.57544470     0.85635537    -1.11138797                          
 INPUT CARD>H     1.0     4.73093176     3.04838800    -1.87753701                          
 INPUT CARD>H     1.0     2.75759697     4.05448008    -0.81596518                          
 INPUT CARD> $END                                                                           
    1000000 WORDS OF MEMORY AVAILABLE

     BASIS OPTIONS
     -------------
     GBASIS=STO          IGAUSS=       3      POLAR=NONE    
     NDFUNC=       0     NFFUNC=       0     DIFFSP=       F
     NPFUNC=       0      DIFFS=       F     BASNAM=        


     RUN TITLE
     ---------
 Title                                                                           

 THE POINT GROUP OF THE MOLECULE IS C1      
 THE ORDER OF THE PRINCIPAL AXIS IS     0

 ATOM      ATOMIC                      COORDINATES (BOHR)
           CHARGE         X                   Y                   Z
 C           6.0     6.8091182778        0.2368480886       -4.4839244571
 C           6.0     4.9433189612       -1.2537982896       -3.3474123510
 C           6.0     3.1136029797       -0.1147630781       -1.8140542349
 C           6.0     4.9989586737        1.4991505420        1.0363797778
 C           6.0     7.5500876800        0.9932493522        0.5493128634
 C           6.0     8.5741548158        2.0302507743       -1.6638868758
 C           6.0     7.7759102378        4.7035227300       -2.2336228583
 C           6.0     5.7607216568        5.7246707872       -1.1861765616
 C           6.0     4.1246876413        4.2332042869        0.6183447993
 O           8.0     2.2552859967        5.1173819243        1.6538186425
 H           1.0     8.3272521189       -0.7246586858       -5.4714410798
 H           1.0     6.2107831066        1.9498988505       -5.4309671932
 H           1.0     5.4260702139       -3.2006954993       -2.9330882086
 H           1.0     2.2364101474        1.6006986151       -2.5071901937
 H           1.0     1.7939863654       -1.3307238000       -0.8231412265
 H           1.0     4.1419214699        0.6186634449        2.6805460213
 H           1.0     8.4013723122       -0.6896711084        1.3448124821
 H           1.0    10.5360627427        1.6182769974       -2.1002187294
 H           1.0     8.9401646930        5.7606180243       -3.5480304807
 H           1.0     5.2111026579        7.6618563739       -1.5419506057

          INTERNUCLEAR DISTANCES (ANGS.)
          ------------------------------

                1 C          2 C          3 C          4 C          5 C     

   1 C       0.0000000    1.3995606 *  2.4197159 *  3.1459952    2.7217750 *
   2 C       1.3995606 *  0.0000000    1.3997162 *  2.7394549 *  2.7511586 *
   3 C       2.4197159 *  1.3997162 *  0.0000000    2.0000000 *  2.7238801 *
   4 C       3.1459952    2.7394549 *  2.0000000 *  0.0000000    1.4002143 *
   5 C       2.7217750 *  2.7511586 *  2.7238801 *  1.4002143 *  0.0000000  
   6 C       2.0000001 *  2.7395954 *  3.1055655    2.3874947 *  1.4023036 *
   7 C       2.6956752 *  3.5401038    3.5549143    2.8335640 *  2.4572211 *
   8 C       3.4331523    3.8900150    3.4090047    2.5584536 *  2.8299904 *
   9 C       3.7121768    3.6086856    2.6901613 *  1.5349929 *  2.4953072 *
  10 O       4.7985870    4.5160177    3.3525871    2.4250276 *  3.5993128  
  11 H       1.0850605 *  2.1326887 *  3.3855182    4.0430872    3.3386292  
  12 H       1.0831261 *  2.1306428 *  2.7464969 *  3.4900942    3.2822926  
  13 H       2.1255951 *  1.0838607 *  2.1248111 *  3.2632544    3.0959239  
  14 H       2.7332006 *  2.1286796 *  1.0835495 *  2.3782897 *  3.2597651  
  15 H       3.3888076    2.1362092 *  1.0847304 *  2.4672292 *  3.3642185  
  16 H       4.0505177    3.3670244    2.4705712 *  1.0861745 *  2.1363343 *
  17 H       3.2348223    3.0988895    3.2736131    2.1470834 *  1.0831635 *
  18 H       2.4525818 *  3.3918194    4.0362811    3.3681607    2.1382117 *
  19 H       3.1719438    4.2734809    4.4738360    3.9141245    3.4068635  
  20 H       4.3101028    4.8158124    4.2647010    3.5368576    3.8999521  

                6 C          7 C          8 C          9 C         10 O     

   1 C       2.0000001 *  2.6956752 *  3.4331523    3.7121768    4.7985870  
   2 C       2.7395954 *  3.5401038    3.8900150    3.6086856    4.5160177  
   3 C       3.1055655    3.5549143    3.4090047    2.6901613 *  3.3525871  
   4 C       2.3874947 *  2.8335640 *  2.5584536 *  1.5349929 *  2.4250276 *
   5 C       1.4023036 *  2.4572211 *  2.8299904 *  2.4953072 *  3.5993128  
   6 C       0.0000000    1.5068248 *  2.4703200 *  2.8916205 *  4.1148645  
   7 C       1.5068248 *  0.0000000    1.3177334 *  2.4643044 *  3.5797100  
   8 C       2.4703200 *  1.3177334 *  0.0000000    1.5113896 *  2.4089164 *
   9 C       2.8916205 *  2.4643044 *  1.5113896 *  0.0000000    1.2238348 *
  10 O       4.1148645    3.5797100    2.4089164 *  1.2238348 *  0.0000000  
  11 H       2.4903936 *  3.3573616    4.3167509    4.7131678    5.8393825  
  12 H       2.3536717 *  2.3815962 *  3.0153681    3.5952699    4.6094071  
  13 H       3.2997971    4.3793267    4.8159739    4.4137678    5.2992815  
  14 H       3.3909769    3.3630210    2.9545438 *  2.3821587 *  2.8829921 *
  15 H       4.0291796    4.5578416    4.2874911    3.2820658    3.6634278  
  16 H       3.3681360    3.8901189    3.4959104    2.2021580 *  2.6380444 *
  17 H       2.1482316 *  3.4409928    3.9074186    3.4721645    4.4774690  
  18 H       1.0856766 *  2.1917765 *  3.3677393    3.9363874    5.1552782  
  19 H       2.2199979 *  1.0845689 *  2.0960032 *  3.4652220    4.4952226  
  20 H       3.4716597    2.1039961 *  1.0820794 *  2.2202015 *  2.6682366 *

               11 H         12 H         13 H         14 H         15 H     

   1 C       1.0850605 *  1.0831261 *  2.1255951 *  2.7332006 *  3.3888076  
   2 C       2.1326887 *  2.1306428 *  1.0838607 *  2.1286796 *  2.1362092 *
   3 C       3.3855182    2.7464969 *  2.1248111 *  1.0835495 *  1.0847304 *
   4 C       4.0430872    3.4900942    3.2632544    2.3782897 *  2.4672292 *
   5 C       3.3386292    3.2822926    3.0959239    3.2597651    3.3642185  
   6 C       2.4903936 *  2.3536717 *  3.2997971    3.3909769    4.0291796  
   7 C       3.3573616    2.3815962 *  4.3793267    3.3630210    4.5578416  
   8 C       4.3167509    3.0153681    4.8159739    2.9545438 *  4.2874911  
   9 C       4.7131678    3.5952699    4.4137678    2.3821587 *  3.2820658  
  10 O       5.8393825    4.6094071    5.2992815    2.8829921 *  3.6634278  
  11 H       0.0000000    1.8049783 *  2.4244664 *  3.7899003    4.2551105  
  12 H       1.8049783 *  0.0000000    3.0575180    2.6174785 *  3.7976585  
  13 H       2.4244664 *  3.0575180    0.0000000    3.0586585    2.4331052 *
  14 H       3.7899003    2.6174785 *  3.0586585    0.0000000    1.8042536 *
  15 H       4.2551105    3.7976585    2.4331052 *  1.8042536 *  0.0000000  
  16 H       4.9010042    4.4855076    3.6566657    2.9703758 *  2.4587522 *
  17 H       3.6072671    4.0188635    3.0609188    4.0332360    3.6954809  
  18 H       2.4669726 *  2.8941643 *  3.7429029    4.3972741    4.9287806  
  19 H       3.5942778    2.6730814 *  5.1040827    4.2111539    5.5191948  
  20 H       5.1709287    3.6947893    5.7962789    3.6092106    5.1048429  

               16 H         17 H         18 H         19 H         20 H     

   1 C       4.0505177    3.2348223    2.4525818 *  3.1719438    4.3101028  
   2 C       3.3670244    3.0988895    3.3918194    4.2734809    4.8158124  
   3 C       2.4705712 *  3.2736131    4.0362811    4.4738360    4.2647010  
   4 C       1.0861745 *  2.1470834 *  3.3681607    3.9141245    3.5368576  
   5 C       2.1363343 *  1.0831635 *  2.1382117 *  3.4068635    3.8999521  
   6 C       3.3681360    2.1482316 *  1.0856766 *  2.2199979 *  3.4716597  
   7 C       3.8901189    3.4409928    2.1917765 *  1.0845689 *  2.1039961 *
   8 C       3.4959104    3.9074186    3.3677393    2.0960032 *  1.0820794 *
   9 C       2.2021580 *  3.4721645    3.9363874    3.4652220    2.2202015 *
  10 O       2.6380444 *  4.4774690    5.1552782    4.4952226    2.6682366 *
  11 H       4.9010042    3.6072671    2.4669726 *  3.5942778    5.1709287  
  12 H       4.4855076    4.0188635    2.8941643 *  2.6730814 *  3.6947893  
  13 H       3.6566657    3.0609188    3.7429029    5.1040827    5.7962789  
  14 H       2.9703758 *  4.0332360    4.3972741    4.2111539    3.6092106  
  15 H       2.4587522 *  3.6954809    4.9287806    5.5191948    5.1048429  
  16 H       0.0000000    2.4616041 *  4.2578215    4.9713943    4.3822520  
  17 H       2.4616041 *  0.0000000    2.4680187 *  4.2937260    4.9714290  
  18 H       4.2578215    2.4680187 *  0.0000000    2.4708690 *  4.2726505  
  19 H       4.9713943    4.2937260    2.4708690 *  0.0000000    2.4562586 *
  20 H       4.3822520    4.9714290    4.2726505    2.4562586 *  0.0000000  

  * ... LESS THAN  3.000


     ATOMIC BASIS SET
     ----------------
 THE CONTRACTED PRIMITIVE FUNCTIONS HAVE BEEN UNNORMALIZED
 THE CONTRACTED BASIS FUNCTIONS ARE NOW NORMALIZED TO UNITY

  SHELL TYPE  PRIMITIVE        EXPONENT          CONTRACTION COEFFICIENT(S)

 C         

      1   S       1            71.6168373    0.154328967295
      1   S       2            13.0450963    0.535328142282
      1   S       3             3.5305122    0.444634542185

      2   L       4             2.9412494   -0.099967229187    0.155916274999
      2   L       5             0.6834831    0.399512826089    0.607683718598
      2   L       6             0.2222899    0.700115468880    0.391957393099

 C         

      3   S       7            71.6168373    0.154328967295
      3   S       8            13.0450963    0.535328142282
      3   S       9             3.5305122    0.444634542185

      4   L      10             2.9412494   -0.099967229187    0.155916274999
      4   L      11             0.6834831    0.399512826089    0.607683718598
      4   L      12             0.2222899    0.700115468880    0.391957393099

 C         

      5   S      13            71.6168373    0.154328967295
      5   S      14            13.0450963    0.535328142282
      5   S      15             3.5305122    0.444634542185

      6   L      16             2.9412494   -0.099967229187    0.155916274999
      6   L      17             0.6834831    0.399512826089    0.607683718598
      6   L      18             0.2222899    0.700115468880    0.391957393099

 C         

      7   S      19            71.6168373    0.154328967295
      7   S      20            13.0450963    0.535328142282
      7   S      21             3.5305122    0.444634542185

      8   L      22             2.9412494   -0.099967229187    0.155916274999
      8   L      23             0.6834831    0.399512826089    0.607683718598
      8   L      24             0.2222899    0.700115468880    0.391957393099

 C         

      9   S      25            71.6168373    0.154328967295
      9   S      26            13.0450963    0.535328142282
      9   S      27             3.5305122    0.444634542185

     10   L      28             2.9412494   -0.099967229187    0.155916274999
     10   L      29             0.6834831    0.399512826089    0.607683718598
     10   L      30             0.2222899    0.700115468880    0.391957393099

 C         

     11   S      31            71.6168373    0.154328967295
     11   S      32            13.0450963    0.535328142282
     11   S      33             3.5305122    0.444634542185

     12   L      34             2.9412494   -0.099967229187    0.155916274999
     12   L      35             0.6834831    0.399512826089    0.607683718598
     12   L      36             0.2222899    0.700115468880    0.391957393099

 C         

     13   S      37            71.6168373    0.154328967295
     13   S      38            13.0450963    0.535328142282
     13   S      39             3.5305122    0.444634542185

     14   L      40             2.9412494   -0.099967229187    0.155916274999
     14   L      41             0.6834831    0.399512826089    0.607683718598
     14   L      42             0.2222899    0.700115468880    0.391957393099

 C         

     15   S      43            71.6168373    0.154328967295
     15   S      44            13.0450963    0.535328142282
     15   S      45             3.5305122    0.444634542185

     16   L      46             2.9412494   -0.099967229187    0.155916274999
     16   L      47             0.6834831    0.399512826089    0.607683718598
     16   L      48             0.2222899    0.700115468880    0.391957393099

 C         

     17   S      49            71.6168373    0.154328967295
     17   S      50            13.0450963    0.535328142282
     17   S      51             3.5305122    0.444634542185

     18   L      52             2.9412494   -0.099967229187    0.155916274999
     18   L      53             0.6834831    0.399512826089    0.607683718598
     18   L      54             0.2222899    0.700115468880    0.391957393099

 O         

     19   S      55           130.7093214    0.154328967295
     19   S      56            23.8088661    0.535328142282
     19   S      57             6.4436083    0.444634542185

     20   L      58             5.0331513   -0.099967229187    0.155916274999
     20   L      59             1.1695961    0.399512826089    0.607683718598
     20   L      60             0.3803890    0.700115468880    0.391957393099

 H         

     21   S      61             3.4252509    0.154328967295
     21   S      62             0.6239137    0.535328142282
     21   S      63             0.1688554    0.444634542185

 H         

     22   S      64             3.4252509    0.154328967295
     22   S      65             0.6239137    0.535328142282
     22   S      66             0.1688554    0.444634542185

 H         

     23   S      67             3.4252509    0.154328967295
     23   S      68             0.6239137    0.535328142282
     23   S      69             0.1688554    0.444634542185

 H         

     24   S      70             3.4252509    0.154328967295
     24   S      71             0.6239137    0.535328142282
     24   S      72             0.1688554    0.444634542185

 H         

     25   S      73             3.4252509    0.154328967295
     25   S      74             0.6239137    0.535328142282
     25   S      75             0.1688554    0.444634542185

 H         

     26   S      76             3.4252509    0.154328967295
     26   S      77             0.6239137    0.535328142282
     26   S      78             0.1688554    0.444634542185

 H         

     27   S      79             3.4252509    0.154328967295
     27   S      80             0.6239137    0.535328142282
     27   S      81             0.1688554    0.444634542185

 H         

     28   S      82             3.4252509    0.154328967295
     28   S      83             0.6239137    0.535328142282
     28   S      84             0.1688554    0.444634542185

 H         

     29   S      85             3.4252509    0.154328967295
     29   S      86             0.6239137    0.535328142282
     29   S      87             0.1688554    0.444634542185

 H         

     30   S      88             3.4252509    0.154328967295
     30   S      89             0.6239137    0.535328142282
     30   S      90             0.1688554    0.444634542185

 TOTAL NUMBER OF BASIS SET SHELLS             =   30
 NUMBER OF CARTESIAN GAUSSIAN BASIS FUNCTIONS =   60
 NUMBER OF ELECTRONS                          =   72
 CHARGE OF MOLECULE                           =    0
 SPIN MULTIPLICITY                            =    1
 NUMBER OF OCCUPIED ORBITALS (ALPHA)          =   36
 NUMBER OF OCCUPIED ORBITALS (BETA )          =   36
 TOTAL NUMBER OF ATOMS                        =   20
 THE NUCLEAR REPULSION ENERGY IS      509.6731514457

     $CONTRL OPTIONS
     ---------------
 SCFTYP=RHF          RUNTYP=SADPOINT     EXETYP=RUN     
 MPLEVL=       0     CITYP =NONE         CCTYP =NONE         VBTYP =NONE    
 DFTTYP=NONE         TDDFT =NONE    
 MULT  =       1     ICHARG=       0     NZVAR =       0     COORD =UNIQUE  
 PP    =NONE         RELWFN=NONE         LOCAL =NONE         NUMGRD=       F
 ISPHER=      -1     NOSYM =       0     MAXIT =      30     UNITS =ANGS    
 PLTORB=       F     MOLPLT=       F     AIMPAC=       F     FRIEND=        
 NPRINT=       7     IREST =       0     GEOM  =INPUT   
 NORMF =       0     NORMP =       0     ITOL  =      20     ICUT  =       9
 INTTYP=BEST         GRDTYP=BEST         QMTTOL= 1.0E-06

     $SYSTEM OPTIONS
     ---------------
  REPLICATED MEMORY=     1000000 WORDS (ON EVERY NODE).
 DISTRIBUTED MEMDDI=           0 MILLION WORDS IN AGGREGATE,
 MEMDDI DISTRIBUTED OVER   1 PROCESSORS IS           0 WORDS/PROCESSOR.
 TOTAL MEMORY REQUESTED ON EACH PROCESSOR=     1000000 WORDS.
 TIMLIM=      525600.00 MINUTES, OR     365.0 DAYS.
 PARALL= F  BALTYP=  DLB     KDIAG=    0  COREFL= F
 MXSEQ2=     300 MXSEQ3=     150  mem10=         0

          ----------------
          PROPERTIES INPUT
          ----------------

     MOMENTS            FIELD           POTENTIAL          DENSITY
 IEMOM =       1   IEFLD =       0   IEPOT =       0   IEDEN =       0
 WHERE =COMASS     WHERE =NUCLEI     WHERE =NUCLEI     WHERE =NUCLEI  
 OUTPUT=BOTH       OUTPUT=BOTH       OUTPUT=BOTH       OUTPUT=BOTH    
 IEMINT=       0   IEFINT=       0                     IEDINT=       0
                                                       MORB  =       0
          EXTRAPOLATION IN EFFECT
          SOSCF IN EFFECT
 ORBITAL PRINTING OPTION: NPREO=     1    60     2     1

     -------------------------------
     INTEGRAL TRANSFORMATION OPTIONS
     -------------------------------
     NWORD  =            0
     CUTOFF = 1.0E-09     MPTRAN =       0
     DIRTRF =       F     AOINTS =DUP     

          ----------------------
          INTEGRAL INPUT OPTIONS
          ----------------------
 NOPK  =       1 NORDER=       0 SCHWRZ=       T

     ------------------------------------------
     THE POINT GROUP IS C1 , NAXIS= 0, ORDER= 1
     ------------------------------------------

     DIMENSIONS OF THE SYMMETRY SUBSPACES ARE
 A   =   60

 ..... DONE SETTING UP THE RUN .....
 STEP CPU TIME =     0.02 TOTAL CPU TIME =          0.0 (      0.0 MIN)
 TOTAL WALL CLOCK TIME=          0.0 SECONDS, CPU UTILIZATION IS    50.00%


          -----------------------------
          STATIONARY POINT LOCATION RUN
          -----------------------------

 OBTAINING INITIAL HESSIAN, HESS=CALC    

     ---------------------------------
     HESSIAN MATRIX CONTROL PARAMETERS
     ---------------------------------
     METHOD=ANALYTIC   NVIB  =       2   VIBSIZ= 0.01000
     RDHESS=       F   PURIFY=       F   PRTIFC=       F
     VIBANL=       F   DECOMP=       F   PROJCT=       F
     SCLFAC= 1.00000   PRTSCN=       F   NPRT  =       0
     PULCOR=       F   NPUN  =       0   REDOVB=       T
     HSSTYP=GENERAL 
 Old integral subroutine is used

     ------------------------------
     CPHF RESPONSE SOLUTION OPTIONS
     ------------------------------
     POLAR  =       F     NWORD  =       0
     CPHF   =AO      

          ********************
          1 ELECTRON INTEGRALS
          ********************
 ...... END OF ONE-ELECTRON INTEGRALS ......
 STEP CPU TIME =     0.03 TOTAL CPU TIME =          0.0 (      0.0 MIN)
 TOTAL WALL CLOCK TIME=          0.1 SECONDS, CPU UTILIZATION IS    71.43%

          -------------
          GUESS OPTIONS
          -------------
          GUESS =HUCKEL            NORB  =       0          NORDER=       0
          MIX   =       F          PRTMO =       F          PUNMO =       F
          TOLZ  = 1.0E-08          TOLE  = 1.0E-05
          SYMDEN=       F          PURIFY=       F

 INITIAL GUESS ORBITALS GENERATED BY HUCKEL   ROUTINE.
 HUCKEL GUESS REQUIRES     53820 WORDS.

 SYMMETRIES FOR INITIAL GUESS ORBITALS FOLLOW.   BOTH SET(S).
    36 ORBITALS ARE OCCUPIED (   10 CORE ORBITALS).
    11=A       12=A       13=A       14=A       15=A       16=A       17=A   
    18=A       19=A       20=A       21=A       22=A       23=A       24=A   
    25=A       26=A       27=A       28=A       29=A       30=A       31=A   
    32=A       33=A       34=A       35=A       36=A       37=A       38=A   
    39=A       40=A       41=A       42=A       43=A       44=A       45=A   
    46=A   
 ...... END OF INITIAL ORBITAL SELECTION ......
 STEP CPU TIME =     0.02 TOTAL CPU TIME =          0.1 (      0.0 MIN)
 TOTAL WALL CLOCK TIME=          0.1 SECONDS, CPU UTILIZATION IS    77.78%

                    ----------------------
                    AO INTEGRAL TECHNOLOGY
                    ----------------------
     S,P,L SHELL ROTATED AXIS INTEGRALS, REPROGRAMMED BY
        KAZUYA ISHIMURA (IMS) AND JOSE SIERRA (SYNSTAR).
     S,P,D,L SHELL ROTATED AXIS INTEGRALS PROGRAMMED BY
        KAZUYA ISHIMURA (INSTITUTE FOR MOLECULAR SCIENCE).
     S,P,D,F,G SHELL TO TOTAL QUARTET ANGULAR MOMENTUM SUM 5,
        ERIC PROGRAM BY GRAHAM FLETCHER (ELORET AND NASA ADVANCED
        SUPERCOMPUTING DIVISION, AMES RESEARCH CENTER).
     S,P,D,F,G,L SHELL GENERAL RYS QUADRATURE PROGRAMMED BY
        MICHEL DUPUIS (PACIFIC NORTHWEST NATIONAL LABORATORY).

          --------------------
          2 ELECTRON INTEGRALS
          --------------------

 THE -PK- OPTION IS OFF, THE INTEGRALS ARE NOT IN SUPERMATRIX FORM.
 STORING   15000 INTEGRALS/RECORD ON DISK, USING 12 BYTES/INTEGRAL.
 TWO ELECTRON INTEGRAL EVALUATION REQUIRES   89821 WORDS OF MEMORY.
 SCHWARZ INEQUALITY OVERHEAD:      1797 INTEGRALS, T=        0.00
 II,JST,KST,LST =  1  1  1  1 NREC =         1 INTLOC =    1
 II,JST,KST,LST =  2  1  1  1 NREC =         1 INTLOC =    2
 II,JST,KST,LST =  3  1  1  1 NREC =         1 INTLOC =   34
 II,JST,KST,LST =  4  1  1  1 NREC =         1 INTLOC =  144
 II,JST,KST,LST =  5  1  1  1 NREC =         1 INTLOC = 1366
 II,JST,KST,LST =  6  1  1  1 NREC =         1 INTLOC = 1964
 II,JST,KST,LST =  7  1  1  1 NREC =         1 INTLOC = 6865
 II,JST,KST,LST =  8  1  1  1 NREC =         1 INTLOC = 8484
 II,JST,KST,LST =  9  1  1  1 NREC =         2 INTLOC = 5884
 II,JST,KST,LST = 10  1  1  1 NREC =         2 INTLOC = 9685
 II,JST,KST,LST = 11  1  1  1 NREC =         4 INTLOC = 5065
 II,JST,KST,LST = 12  1  1  1 NREC =         4 INTLOC =12162
 II,JST,KST,LST = 13  1  1  1 NREC =         7 INTLOC =12271
 II,JST,KST,LST = 14  1  1  1 NREC =         8 INTLOC = 8723
 II,JST,KST,LST = 15  1  1  1 NREC =        13 INTLOC = 6288
 II,JST,KST,LST = 16  1  1  1 NREC =        14 INTLOC = 8797
 II,JST,KST,LST = 17  1  1  1 NREC =        21 INTLOC =12815
 II,JST,KST,LST = 18  1  1  1 NREC =        23 INTLOC = 8851
 II,JST,KST,LST = 19  1  1  1 NREC =        34 INTLOC = 1821
 II,JST,KST,LST = 20  1  1  1 NREC =        35 INTLOC =12856
 II,JST,KST,LST = 21  1  1  1 NREC =        48 INTLOC = 3266
 II,JST,KST,LST = 22  1  1  1 NREC =        51 INTLOC =14538
 II,JST,KST,LST = 23  1  1  1 NREC =        56 INTLOC = 4096
 II,JST,KST,LST = 24  1  1  1 NREC =        60 INTLOC = 8314
 II,JST,KST,LST = 25  1  1  1 NREC =        65 INTLOC = 7333
 II,JST,KST,LST = 26  1  1  1 NREC =        70 INTLOC = 8164
 II,JST,KST,LST = 27  1  1  1 NREC =        76 INTLOC =  208
 II,JST,KST,LST = 28  1  1  1 NREC =        81 INTLOC =10559
 II,JST,KST,LST = 29  1  1  1 NREC =        87 INTLOC = 8866
 II,JST,KST,LST = 30  1  1  1 NREC =        93 INTLOC =11606
 SCHWARZ INEQUALITY TEST SKIPPED       24218 INTEGRAL BLOCKS.
 TOTAL NUMBER OF NONZERO TWO-ELECTRON INTEGRALS =             1489333
        100 INTEGRAL RECORDS WERE STORED ON DISK FILE  8.
  ...... END OF TWO-ELECTRON INTEGRALS .....
 STEP CPU TIME =     0.32 TOTAL CPU TIME =          0.4 (      0.0 MIN)
 TOTAL WALL CLOCK TIME=          0.4 SECONDS, CPU UTILIZATION IS    92.86%

          --------------------------
                 RHF SCF CALCULATION
          --------------------------

     NUCLEAR ENERGY =       509.6731514457
     MAXIT =   30     NPUNCH=    2
     EXTRAP=T  DAMP=F  SHIFT=F  RSTRCT=F  DIIS=F  DEM=F  SOSCF=T
     DENSITY MATRIX CONV=  1.00E-05
     SOSCF WILL OPTIMIZE     864 ORBITAL ROTATIONS, SOGTOL=   0.250
     MEMORY REQUIRED FOR RHF ITERS=     59496 WORDS.

 ITER EX DEM     TOTAL ENERGY        E CHANGE  DENSITY CHANGE     ORB. GRAD
   1  0  0     -415.5233190709  -415.5233190709   0.524937235   0.000000000
          ---------------START SECOND ORDER SCF---------------
   2  1  0     -416.0288474394    -0.5055283685   0.254892768   0.064719537
   3  2  0     -416.0582524279    -0.0294049885   0.125797730   0.049268367
   4  3  0     -416.0921771859    -0.0339247580   0.017810941   0.007298080
   5  4  0     -416.0930434462    -0.0008662603   0.004712092   0.002938874
   6  5  0     -416.0931515191    -0.0001080728   0.001607832   0.000763341
   7  6  0     -416.0931640564    -0.0000125373   0.000611634   0.000261634
   8  7  0     -416.0931659106    -0.0000018542   0.000245700   0.000073020
   9  8  0     -416.0931660881    -0.0000001775   0.000130135   0.000023570
  10  9  0     -416.0931661199    -0.0000000318   0.000042734   0.000011427
  11 10  0     -416.0931661249    -0.0000000051   0.000022040   0.000003473
  12 11  0     -416.0931661259    -0.0000000010   0.000006157   0.000001377
  13 12  0     -416.0931661260    -0.0000000001   0.000003397   0.000000512

          -----------------
          DENSITY CONVERGED
          -----------------
     TIME TO FORM FOCK OPERATORS=       0.3 SECONDS (       0.0 SEC/ITER)
     TIME TO SOLVE SCF EQUATIONS=       0.0 SECONDS (       0.0 SEC/ITER)

 FINAL RHF ENERGY IS     -416.0931661260 AFTER  13 ITERATIONS

          ------------
          EIGENVECTORS
          ------------

                      1          2          3          4          5
                  -20.2612   -11.1181   -11.0543   -11.0493   -11.0456
                     A          A          A          A          A   
    1  C  1  S   -0.000000   0.000023  -0.030495  -0.005700  -0.084615
    2  C  1  S    0.000003  -0.000004  -0.003830   0.000016  -0.002969
    3  C  1  X    0.000002  -0.000004  -0.001115  -0.000062   0.000166
    4  C  1  Y   -0.000001   0.000014  -0.001144  -0.000100  -0.000008
    5  C  1  Z   -0.000000   0.000002  -0.001881  -0.000285  -0.000000
    6  C  2  S   -0.000000   0.000015  -0.000572   0.000062   0.003854
    7  C  2  S    0.000010  -0.000030   0.000351   0.000059  -0.006048
    8  C  2  X   -0.000007   0.000048   0.000180   0.000005   0.003378
    9  C  2  Y   -0.000004   0.000036   0.000150   0.000058  -0.001642
   10  C  2  Z    0.000006  -0.000020  -0.000068   0.000018  -0.002677
   11  C  3  S   -0.000005  -0.000222  -0.000699   0.000653   0.958699
   12  C  3  S   -0.000000   0.000304  -0.000021   0.000046   0.035528
   13  C  3  X   -0.000004  -0.000134  -0.000064  -0.000018   0.000067
   14  C  3  Y    0.000028  -0.000093  -0.000043   0.000014  -0.000360
   15  C  3  Z    0.000036  -0.000215   0.000006   0.000015  -0.000923
   16  C  4  S   -0.000024  -0.001607  -0.004049  -0.005413  -0.240250
   17  C  4  S    0.000270  -0.005398  -0.000068  -0.000229  -0.011273
   18  C  4  X   -0.000373   0.001308  -0.000033  -0.000083   0.000801
   19  C  4  Y    0.000083  -0.003795  -0.000070  -0.000108   0.000945
   20  C  4  Z    0.000287   0.000388   0.000175   0.000112   0.001627
   21  C  5  S    0.000004  -0.000277   0.003950  -0.001148  -0.002008
   22  C  5  S    0.000033   0.000070  -0.006881  -0.000015   0.001795
   23  C  5  X   -0.000025  -0.000003  -0.001885  -0.000036  -0.001163
   24  C  5  Y   -0.000066  -0.000024  -0.001811  -0.000134   0.000231
   25  C  5  Z    0.000014  -0.000015   0.003744   0.000037   0.000236
   26  C  6  S    0.000003  -0.000254   0.991336   0.024236  -0.003049
   27  C  6  S    0.000007  -0.000064   0.036233  -0.004858   0.000113
   28  C  6  X    0.000039   0.000075   0.000123   0.001230  -0.000080
   29  C  6  Y   -0.000006  -0.000071   0.000697  -0.003905  -0.000088
   30  C  6  Z   -0.000011  -0.000035   0.001596   0.000687  -0.000141
   31  C  7  S    0.000005  -0.000272  -0.023440   0.991729  -0.002393
   32  C  7  S    0.000054   0.000111  -0.006871   0.035857  -0.000057
   33  C  7  X   -0.000012  -0.000009  -0.001215  -0.001400  -0.000018
   34  C  7  Y    0.000072  -0.000081   0.004001   0.000666  -0.000034
   35  C  7  Z   -0.000022   0.000038  -0.001072   0.000633   0.000030
   36  C  8  S   -0.000025  -0.001005  -0.001146   0.019707   0.000524
   37  C  8  S    0.000270  -0.005689   0.000345  -0.007398   0.000039
   38  C  8  X   -0.000376   0.002472   0.000117  -0.003699  -0.000032
   39  C  8  Y    0.000312   0.001989  -0.000142   0.001861  -0.000032
   40  C  8  Z    0.000156  -0.002635   0.000021   0.001929  -0.000029
   41  C  9  S    0.000548   0.992564   0.000267   0.000342  -0.000395
   42  C  9  S   -0.007195   0.032729  -0.000008   0.000149   0.001520
   43  C  9  X    0.005162  -0.000354  -0.000106  -0.000121   0.000323
   44  C  9  Y   -0.002443   0.000236   0.000008   0.000076  -0.001013
   45  C  9  Z   -0.002849   0.000028   0.000096   0.000055   0.000197
   46  O 10  S    0.994267   0.000162   0.000005   0.000013  -0.000003
   47  O 10  S    0.025993  -0.005790  -0.000052  -0.000115  -0.000031
   48  O 10  X    0.004533  -0.001391  -0.000028  -0.000053  -0.000028
   49  O 10  Y   -0.002149   0.000650   0.000017   0.000008   0.000025
   50  O 10  Z   -0.002514   0.000789   0.000009   0.000037  -0.000036
   51  H 11  S   -0.000002   0.000002   0.000358  -0.000012   0.000492
   52  H 12  S   -0.000002   0.000006   0.000363  -0.000951   0.000559
   53  H 13  S   -0.000002   0.000006  -0.000001   0.000001   0.000038
   54  H 14  S    0.000080  -0.001059   0.000005  -0.000042  -0.006737
   55  H 15  S   -0.000006  -0.000035  -0.000017  -0.000014  -0.006697
   56  H 16  S   -0.000179  -0.000014  -0.000090  -0.000023   0.001820
   57  H 17  S   -0.000020  -0.000052   0.000080  -0.000080  -0.000014
   58  H 18  S   -0.000016  -0.000026  -0.006924  -0.000128   0.000018
   59  H 19  S   -0.000021  -0.000038   0.000241  -0.006826   0.000025
   60  H 20  S   -0.000192   0.000012  -0.000037   0.000011   0.000014

                      6          7          8          9         10
                  -11.0452   -11.0444   -11.0258   -11.0184   -11.0121
                     A          A          A          A          A   
    1  C  1  S    0.987935   0.016877  -0.000217   0.000974  -0.003465
    2  C  1  S    0.035880   0.000648   0.000047   0.000289  -0.007235
    3  C  1  X   -0.001194   0.000004   0.000004  -0.000055   0.003226
    4  C  1  Y   -0.000816  -0.000070   0.000040   0.000004   0.002575
    5  C  1  Z   -0.000847  -0.000088  -0.000036  -0.000078  -0.002120
    6  C  2  S    0.004584   0.000519   0.000105  -0.018461   0.991933
    7  C  2  S   -0.007343  -0.001673   0.000028  -0.001165   0.036727
    8  C  2  X   -0.002903   0.000684   0.000006  -0.000374   0.001174
    9  C  2  Y   -0.002648  -0.000458   0.000001  -0.000239   0.001364
   10  C  2  Z    0.001824  -0.000516   0.000008  -0.000551   0.001802
   11  C  3  S    0.077995   0.243392  -0.000271   0.000891  -0.003417
   12  C  3  S    0.003050   0.006221   0.000087   0.000298  -0.007232
   13  C  3  X   -0.000071  -0.001328  -0.000064  -0.000044  -0.003307
   14  C  3  Y   -0.000113  -0.001176   0.000049  -0.000017   0.001948
   15  C  3  Z   -0.000016  -0.002178  -0.000005  -0.000056   0.002605
   16  C  4  S   -0.037155   0.961875   0.001491  -0.004610   0.000545
   17  C  4  S   -0.001530   0.034102   0.000248  -0.007296   0.000019
   18  C  4  X    0.000050   0.001724  -0.000007  -0.004412  -0.000130
   19  C  4  Y    0.000057   0.000802   0.000011   0.000948   0.000061
   20  C  4  Z    0.000172   0.001301   0.000065   0.000921   0.000075
   21  C  5  S   -0.001015   0.005025  -0.004280   0.991918   0.018700
   22  C  5  S    0.000149  -0.006689  -0.000268   0.036682   0.000198
   23  C  5  X   -0.000194   0.004214   0.000075  -0.001436   0.000279
   24  C  5  Y    0.000017  -0.000863  -0.000203  -0.000435   0.000342
   25  C  5  Z    0.000064  -0.000934   0.000052  -0.001956   0.000436
   26  C  6  S    0.031291   0.004834   0.000710  -0.003140   0.000405
   27  C  6  S   -0.001560   0.000170   0.000406  -0.007218   0.000020
   28  C  6  X    0.001190   0.000241   0.000051   0.001832   0.000106
   29  C  6  Y    0.001239  -0.000017   0.000145   0.001865   0.000069
   30  C  6  Z    0.001881   0.000056  -0.000043  -0.003782  -0.000095
   31  C  7  S    0.004719   0.005149  -0.019188   0.001213  -0.000076
   32  C  7  S    0.000131   0.000116  -0.008919   0.000147   0.000008
   33  C  7  X   -0.000021   0.000105   0.003802   0.000065  -0.000042
   34  C  7  Y    0.000034   0.000107  -0.001930  -0.000020  -0.000012
   35  C  7  Z   -0.000069  -0.000090  -0.001991  -0.000168  -0.000016
   36  C  8  S    0.000344  -0.001221   0.991968   0.004375  -0.000031
   37  C  8  S    0.000019   0.000065   0.036541   0.000092  -0.000014
   38  C  8  X   -0.000009  -0.000019   0.001545  -0.000079  -0.000003
   39  C  8  Y   -0.000011   0.000039  -0.000892   0.000148   0.000003
   40  C  8  Z   -0.000022   0.000023  -0.000662  -0.000107  -0.000001
   41  C  9  S   -0.000095   0.002579   0.001994   0.000339  -0.000013
   42  C  9  S    0.000236  -0.005469  -0.005878   0.000129  -0.000010
   43  C  9  X    0.000047  -0.001281  -0.002426  -0.000154   0.000001
   44  C  9  Y   -0.000157   0.003785  -0.002170  -0.000057   0.000000
   45  C  9  Z    0.000029  -0.000769   0.002635   0.000004  -0.000050
   46  O 10  S    0.000001  -0.000022  -0.000022   0.000009   0.000000
   47  O 10  S   -0.000010   0.000244   0.000249  -0.000084   0.000005
   48  O 10  X   -0.000008   0.000088   0.000138  -0.000017   0.000007
   49  O 10  Y    0.000007  -0.000207   0.000102   0.000040   0.000002
   50  O 10  Z   -0.000005   0.000041  -0.000141   0.000028   0.000003
   51  H 11  S   -0.006894  -0.000160  -0.000010  -0.000031   0.000107
   52  H 12  S   -0.006912  -0.000132  -0.000105  -0.000057   0.000014
   53  H 13  S    0.000051   0.000009  -0.000004   0.000141  -0.007002
   54  H 14  S   -0.000599  -0.001566  -0.000210  -0.000044   0.000020
   55  H 15  S   -0.000654  -0.001564  -0.000018  -0.000040   0.000105
   56  H 16  S    0.000252  -0.006695  -0.000099   0.000120  -0.000032
   57  H 17  S   -0.000001   0.000068  -0.000031  -0.006920  -0.000118
   58  H 18  S   -0.000085  -0.000155  -0.000094   0.000106  -0.000042
   59  H 19  S    0.000012  -0.000092   0.000266  -0.000106  -0.000003
   60  H 20  S   -0.000002  -0.000067  -0.006868  -0.000089   0.000001

                     11         12         13         14         15
                   -1.3129    -1.0917    -1.0182    -0.9718    -0.9334
                     A          A          A          A          A   
    1  C  1  S   -0.000703  -0.056422  -0.102738   0.069566  -0.076334
    2  C  1  S    0.001711   0.149975   0.276481  -0.191482   0.219013
    3  C  1  X   -0.000241  -0.014728  -0.062617   0.031459   0.024465
    4  C  1  Y    0.000137  -0.001720  -0.046677   0.016669   0.011366
    5  C  1  Z    0.000451   0.025299   0.025484  -0.000813   0.004808
    6  C  2  S   -0.001044  -0.058414  -0.147816   0.066225   0.012173
    7  C  2  S    0.002309   0.145763   0.383136  -0.175421  -0.032721
    8  C  2  X   -0.000234   0.008465   0.003989  -0.020364   0.080303
    9  C  2  Y    0.000754   0.030791   0.058109  -0.024400   0.003670
   10  C  2  Z    0.000720   0.012264   0.022541   0.014493  -0.055539
   11  C  3  S   -0.003134  -0.051105  -0.114859   0.018426   0.091592
   12  C  3  S    0.007674   0.135739   0.310159  -0.047025  -0.260643
   13  C  3  X    0.000574   0.028354   0.050312  -0.011769   0.002954
   14  C  3  Y    0.002263  -0.000543  -0.030708   0.022451  -0.003820
   15  C  3  Z    0.001271  -0.008170  -0.050682   0.045905  -0.005521
   16  C  4  S   -0.021439  -0.087683  -0.008639  -0.125940   0.084104
   17  C  4  S    0.053622   0.230020   0.026265   0.348110  -0.241683
   18  C  4  X   -0.007970   0.050195  -0.015850   0.074214   0.043485
   19  C  4  Y    0.025850   0.008592  -0.026074  -0.009139  -0.035960
   20  C  4  Z   -0.003271  -0.025613  -0.010933   0.005170   0.003332
   21  C  5  S   -0.005571  -0.108609   0.008434  -0.128281  -0.047927
   22  C  5  S    0.012749   0.273118  -0.021867   0.342552   0.130766
   23  C  5  X   -0.005197  -0.029984  -0.013408  -0.067403   0.094291
   24  C  5  Y    0.002775   0.033588  -0.020635   0.007571   0.009107
   25  C  5  Z   -0.000270  -0.048191   0.007114   0.002100  -0.083296
   26  C  6  S   -0.003225  -0.112730   0.031043  -0.020121  -0.131096
   27  C  6  S    0.007685   0.297001  -0.082815   0.051507   0.372704
   28  C  6  X   -0.002126  -0.041804   0.001958  -0.011813   0.011886
   29  C  6  Y    0.001240   0.016766  -0.052024  -0.068188  -0.018450
   30  C  6  Z    0.001567   0.035444  -0.014677   0.085269   0.015300
   31  C  7  S   -0.006025  -0.103317   0.093464   0.105313  -0.008338
   32  C  7  S    0.014334   0.263303  -0.245729  -0.283103   0.026814
   33  C  7  X   -0.005685  -0.033584   0.044951   0.060352   0.085148
   34  C  7  Y    0.001061  -0.028357  -0.016966  -0.049529  -0.095738
   35  C  7  Z    0.003640   0.033682  -0.032615  -0.014240  -0.024128
   36  C  8  S   -0.021743  -0.081432   0.091463   0.105533   0.086810
   37  C  8  S    0.052869   0.204541  -0.237298  -0.279868  -0.235747
   38  C  8  X   -0.015441   0.041822  -0.046993  -0.059934   0.016658
   39  C  8  Y   -0.015122  -0.045843   0.032106   0.015323   0.021172
   40  C  8  Z    0.017297  -0.012661   0.017346   0.041598  -0.018894
   41  C  9  S   -0.127581  -0.035759   0.022140  -0.008440   0.070169
   42  C  9  S    0.295700   0.099326  -0.063440   0.023617  -0.207171
   43  C  9  X   -0.124726   0.072692  -0.046480  -0.000753  -0.093673
   44  C  9  Y    0.058263  -0.038289  -0.021104  -0.094659   0.053199
   45  C  9  Z    0.068182  -0.040791   0.034710   0.043136   0.058551
   46  O 10  S   -0.214497   0.038237  -0.015263   0.006392  -0.049563
   47  O 10  S    0.749419  -0.142703   0.058505  -0.024987   0.198098
   48  O 10  X    0.133894  -0.005700  -0.004220  -0.001588  -0.017711
   49  O 10  Y   -0.063750   0.001554  -0.008098  -0.022932   0.012722
   50  O 10  Z   -0.074682   0.003287   0.003595   0.012243   0.011893
   51  H 11  S    0.000185   0.028695   0.060137  -0.048130   0.070687
   52  H 12  S    0.000422   0.037078   0.059982  -0.057593   0.064815
   53  H 13  S    0.000306   0.028996   0.087659  -0.042346  -0.008031
   54  H 14  S    0.003456   0.031874   0.071637  -0.011799  -0.082290
   55  H 15  S    0.001284   0.025216   0.068215  -0.006577  -0.078882
   56  H 16  S    0.008816   0.040035   0.010972   0.089826  -0.070815
   57  H 17  S    0.001521   0.051064  -0.000181   0.088614   0.040568
   58  H 18  S    0.000820   0.055682  -0.016066   0.008970   0.119132
   59  H 19  S    0.001621   0.049412  -0.055414  -0.078124   0.014407
   60  H 20  S    0.008802   0.035058  -0.052353  -0.075070  -0.064688

                     16         17         18         19         20
                   -0.8550    -0.7742    -0.7531    -0.7105    -0.6556
                     A          A          A          A          A   
    1  C  1  S   -0.132740   0.035948  -0.009407   0.068969   0.004020
    2  C  1  S    0.385023  -0.111695   0.033978  -0.220752  -0.011405
    3  C  1  X   -0.007623  -0.038897   0.047200  -0.073986   0.122086
    4  C  1  Y   -0.030952  -0.069442   0.055287  -0.130544  -0.078172
    5  C  1  Z   -0.046843   0.054661  -0.011481   0.127309  -0.023123
    6  C  2  S   -0.000761  -0.055338   0.046545  -0.115118  -0.004077
    7  C  2  S    0.002078   0.165217  -0.140852   0.355053   0.015592
    8  C  2  X    0.156974  -0.001838  -0.030400   0.044640   0.026642
    9  C  2  Y    0.015021  -0.038436   0.042816  -0.136087  -0.132710
   10  C  2  Z   -0.114143   0.022505  -0.000664   0.043213   0.023984
   11  C  3  S    0.132128   0.014091  -0.036900   0.067772   0.001452
   12  C  3  S   -0.383379  -0.048094   0.114156  -0.217296  -0.003252
   13  C  3  X    0.036979   0.050122  -0.068109   0.152339  -0.052177
   14  C  3  Y    0.032362  -0.057663   0.060393  -0.104514  -0.087352
   15  C  3  Z    0.022480  -0.051841   0.001151  -0.045759   0.088745
   16  C  4  S   -0.062514   0.081795   0.041384  -0.015601  -0.028200
   17  C  4  S    0.180618  -0.253417  -0.121201   0.049811   0.097393
   18  C  4  X    0.014787   0.124162  -0.104755  -0.042515  -0.143525
   19  C  4  Y    0.058126  -0.041315   0.149182   0.116673  -0.075575
   20  C  4  Z    0.033461  -0.057556  -0.073256   0.011984   0.159558
   21  C  5  S    0.006543  -0.095483   0.057775   0.047488   0.026673
   22  C  5  S   -0.018820   0.283224  -0.175342  -0.145300  -0.080790
   23  C  5  X   -0.075178   0.084434   0.095669  -0.005331   0.089347
   24  C  5  Y   -0.004907  -0.048803   0.080126   0.094222  -0.117619
   25  C  5  Z    0.055077  -0.034747  -0.117488  -0.029932   0.070345
   26  C  6  S    0.071513   0.007698  -0.084261  -0.031722  -0.032986
   27  C  6  S   -0.206930  -0.028996   0.259972   0.098721   0.110884
   28  C  6  X   -0.032220  -0.024473   0.058557   0.021850   0.267514
   29  C  6  Y   -0.045609  -0.138174  -0.027454   0.086628  -0.081824
   30  C  6  Z   -0.030642   0.142928  -0.010253  -0.004586  -0.093365
   31  C  7  S    0.052009   0.081137   0.082627  -0.019664   0.026251
   32  C  7  S   -0.151060  -0.246692  -0.244745   0.062687  -0.080051
   33  C  7  X   -0.056063  -0.106732   0.021343   0.065347   0.110663
   34  C  7  Y    0.038169   0.053221  -0.158339  -0.081148   0.084783
   35  C  7  Z    0.009812   0.076428   0.047478   0.021453  -0.089934
   36  C  8  S   -0.036956  -0.088603  -0.001483   0.039498  -0.032413
   37  C  8  S    0.106531   0.263459   0.016030  -0.118980   0.113908
   38  C  8  X   -0.056079  -0.089548  -0.174272   0.006288  -0.098168
   39  C  8  Y   -0.009904   0.056708  -0.066121  -0.090094   0.201196
   40  C  8  Z    0.043367   0.051876   0.146007   0.056043   0.008937
   41  C  9  S   -0.062140  -0.000511  -0.107368  -0.051609  -0.014040
   42  C  9  S    0.189392   0.001182   0.343324   0.167568   0.044896
   43  C  9  X    0.079946   0.042062   0.087617   0.044951  -0.035423
   44  C  9  Y   -0.036575   0.190957   0.001845  -0.082390   0.037109
   45  C  9  Z   -0.027691  -0.093617  -0.094638   0.035563   0.028832
   46  O 10  S    0.036102  -0.001262   0.058953   0.023325   0.029164
   47  O 10  S   -0.149811   0.005717  -0.258962  -0.104722  -0.139344
   48  O 10  X    0.032585   0.018393   0.089505   0.049968   0.073660
   49  O 10  Y   -0.013155   0.096360  -0.019995  -0.059997  -0.021832
   50  O 10  Z   -0.011153  -0.045689  -0.073717   0.008081  -0.035216
   51  H 11  S    0.143527  -0.053856   0.022816  -0.121302   0.100456
   52  H 12  S    0.122393  -0.091284   0.032265  -0.183328  -0.074231
   53  H 13  S    0.000496   0.085897  -0.083318   0.236776   0.105181
   54  H 14  S   -0.119940  -0.049992   0.100630  -0.174445  -0.063078
   55  H 15  S   -0.142615  -0.032269   0.045642  -0.121643   0.094371
   56  H 16  S    0.054684  -0.139332  -0.095838   0.001011   0.195693
   57  H 17  S   -0.009145   0.143511  -0.110932  -0.115462   0.078716
   58  H 18  S   -0.075634  -0.027039   0.138639   0.039374   0.260307
   59  H 19  S   -0.060629  -0.142226  -0.155826   0.013160   0.080784
   60  H 20  S    0.034302   0.139455  -0.022085  -0.111475   0.195623

                     21         22         23         24         25
                   -0.6060    -0.5917    -0.5868    -0.5546    -0.5419
                     A          A          A          A          A   
    1  C  1  S   -0.015522  -0.007150   0.001086  -0.000319   0.004291
    2  C  1  S    0.055526   0.020212   0.001524   0.002840  -0.022791
    3  C  1  X    0.240796   0.068807   0.035358  -0.111148  -0.017804
    4  C  1  Y   -0.112806  -0.070601   0.152617   0.220497  -0.236178
    5  C  1  Z   -0.114008  -0.099695  -0.074604  -0.064764   0.087124
    6  C  2  S    0.027093   0.005960   0.004761  -0.012581  -0.007377
    7  C  2  S   -0.083025  -0.016318  -0.014696   0.041398   0.023907
    8  C  2  X    0.045306   0.005731  -0.104208  -0.145390   0.148657
    9  C  2  Y   -0.246382  -0.105671  -0.054014   0.035068   0.042177
   10  C  2  Z    0.021246  -0.044907   0.087029   0.039685  -0.128451
   11  C  3  S   -0.014167  -0.009102  -0.004541   0.004195   0.001653
   12  C  3  S    0.051133   0.029062   0.011903  -0.023736  -0.001145
   13  C  3  X   -0.179465  -0.125148   0.043563   0.062031  -0.079395
   14  C  3  Y   -0.155495  -0.003076  -0.184223  -0.175776   0.258853
   15  C  3  Z    0.187843   0.006443   0.035417  -0.043536  -0.054127
   16  C  4  S    0.001464   0.054913  -0.012192   0.020984  -0.006496
   17  C  4  S   -0.007502  -0.185645   0.036643  -0.072030   0.021587
   18  C  4  X    0.012792   0.033246   0.198625  -0.150239  -0.004536
   19  C  4  Y   -0.005823   0.132171  -0.145213  -0.036997  -0.140700
   20  C  4  Z   -0.010343  -0.067405   0.004160   0.207184   0.094495
   21  C  5  S    0.005235  -0.055770  -0.000234   0.009398   0.017436
   22  C  5  S   -0.020173   0.190097  -0.000697  -0.026125  -0.056489
   23  C  5  X   -0.024542   0.131603  -0.210756   0.195138  -0.014909
   24  C  5  Y    0.086999  -0.143236   0.012198  -0.160876  -0.123174
   25  C  5  Z   -0.055102   0.111716   0.112216   0.120549   0.165063
   26  C  6  S   -0.003886   0.056286   0.007235   0.000610   0.005313
   27  C  6  S    0.011917  -0.196116  -0.020003  -0.000038  -0.014002
   28  C  6  X   -0.084946  -0.006189  -0.045043   0.073736   0.124825
   29  C  6  Y    0.016167   0.013430   0.182577   0.027602   0.114891
   30  C  6  Z    0.054012   0.045721  -0.143198  -0.026572  -0.111702
   31  C  7  S   -0.000733  -0.046259  -0.006350  -0.007858  -0.019775
   32  C  7  S   -0.008073   0.157011   0.040361   0.016215   0.065755
   33  C  7  X   -0.160972   0.116723   0.180890  -0.204602  -0.021816
   34  C  7  Y   -0.052470   0.099944  -0.179573  -0.066519  -0.103473
   35  C  7  Z    0.163922  -0.112889  -0.087570   0.168500   0.091919
   36  C  8  S   -0.014227   0.049926   0.020054  -0.018411  -0.005404
   37  C  8  S    0.034824  -0.162990  -0.053674   0.052175   0.015891
   38  C  8  X    0.117818   0.012119  -0.201478   0.132723  -0.004174
   39  C  8  Y   -0.118589  -0.155915  -0.027656  -0.207992  -0.214401
   40  C  8  Z   -0.015373   0.059079   0.156635  -0.001685   0.088249
   41  C  9  S    0.033248  -0.086017  -0.007433  -0.011692   0.020778
   42  C  9  S   -0.113898   0.299706   0.022873   0.038552  -0.070854
   43  C  9  X    0.053445  -0.033190   0.079859   0.017623   0.086811
   44  C  9  Y   -0.026957   0.001546   0.286425   0.019594   0.139632
   45  C  9  Z   -0.004816   0.019646  -0.110476   0.061862  -0.176239
   46  O 10  S   -0.034089   0.054692   0.002602   0.009696  -0.028589
   47  O 10  S    0.167500  -0.269450  -0.012591  -0.049425   0.148051
   48  O 10  X   -0.110540   0.203629   0.077842   0.061540  -0.127593
   49  O 10  Y    0.034925  -0.112955   0.263363  -0.065425   0.230468
   50  O 10  Z    0.082506  -0.112625  -0.117078   0.043953  -0.045798
   51  H 11  S    0.248354   0.114461  -0.010889  -0.134127   0.045030
   52  H 12  S   -0.070928  -0.011137   0.128245   0.209636  -0.208438
   53  H 13  S    0.154315   0.069446   0.028278  -0.026791  -0.012870
   54  H 14  S   -0.075600   0.058768  -0.148255  -0.144896   0.233745
   55  H 15  S    0.255350   0.075385   0.086571   0.034765  -0.113002
   56  H 16  S   -0.002034  -0.186761   0.003466   0.174473   0.127948
   57  H 17  S   -0.085262   0.263974  -0.043186   0.210059   0.111723
   58  H 18  S   -0.065084  -0.101097  -0.049074   0.052893   0.098190
   59  H 19  S   -0.176776   0.230053   0.072074  -0.212576  -0.076614
   60  H 20  S   -0.086878  -0.209200  -0.025315  -0.169480  -0.176572

                     26         27         28         29         30
                   -0.5156    -0.5060    -0.4866    -0.4785    -0.4506
                     A          A          A          A          A   
    1  C  1  S    0.010052  -0.008405  -0.003792  -0.030589  -0.007157
    2  C  1  S   -0.036975   0.017063   0.017692   0.106788   0.025497
    3  C  1  X    0.090826  -0.168099   0.241678  -0.176025  -0.146494
    4  C  1  Y    0.058693  -0.095176  -0.169083  -0.115857   0.011575
    5  C  1  Z   -0.172613  -0.110411   0.001525   0.194184   0.129204
    6  C  2  S   -0.009522  -0.017082   0.007640   0.007273   0.002194
    7  C  2  S    0.033614   0.060537  -0.032980  -0.032396  -0.007491
    8  C  2  X   -0.205767  -0.023931  -0.161996   0.154529   0.163166
    9  C  2  Y   -0.027002   0.027556   0.224065   0.266859   0.000428
   10  C  2  Z    0.051195  -0.233515   0.138527  -0.070176  -0.092494
   11  C  3  S   -0.009838  -0.002883  -0.031997  -0.005298   0.006824
   12  C  3  S    0.026615   0.000506   0.110509   0.023870  -0.022035
   13  C  3  X    0.091403  -0.223051   0.233969  -0.039824  -0.156848
   14  C  3  Y   -0.030615  -0.000649  -0.067130  -0.218163  -0.014234
   15  C  3  Z   -0.173235  -0.118247  -0.136021   0.220198   0.123424
   16  C  4  S   -0.011530   0.008578  -0.001372  -0.000467  -0.003657
   17  C  4  S    0.035807  -0.042939   0.004780   0.008659   0.004357
   18  C  4  X    0.147793   0.097592   0.100169  -0.049552   0.288415
   19  C  4  Y    0.209632   0.074697  -0.094031   0.039217   0.016405
   20  C  4  Z   -0.076528   0.226612   0.008390  -0.038090  -0.157654
   21  C  5  S   -0.004802  -0.021112   0.005592   0.007888   0.000226
   22  C  5  S    0.018965   0.074325  -0.022297  -0.028143  -0.000933
   23  C  5  X   -0.045160   0.059720  -0.112736   0.046314  -0.288240
   24  C  5  Y    0.024916   0.235349   0.035139  -0.010430  -0.063183
   25  C  5  Z    0.152397   0.081175  -0.008529  -0.078899   0.205045
   26  C  6  S    0.022073  -0.006614   0.002824   0.011556   0.004973
   27  C  6  S   -0.082691   0.013509  -0.006788  -0.043247  -0.007822
   28  C  6  X    0.272844   0.019956   0.047175   0.053004   0.191830
   29  C  6  Y   -0.032314   0.174925  -0.054593  -0.163686   0.055547
   30  C  6  Z   -0.047846   0.198540  -0.022853   0.042055  -0.262465
   31  C  7  S    0.019230   0.000880  -0.011858   0.002254   0.003212
   32  C  7  S   -0.072369   0.001691   0.030005  -0.011435  -0.021371
   33  C  7  X    0.041795   0.149220  -0.073185   0.063955  -0.135191
   34  C  7  Y    0.121385  -0.029441   0.093930   0.186726  -0.048735
   35  C  7  Z   -0.007249   0.146584   0.116421  -0.053447   0.075847
   36  C  8  S   -0.010107   0.003955   0.000975   0.003724  -0.011156
   37  C  8  S    0.036163  -0.009168  -0.014305  -0.015824   0.036087
   38  C  8  X    0.028552   0.057857   0.176075   0.025000   0.106832
   39  C  8  Y   -0.022875   0.167374  -0.040920  -0.101219   0.028358
   40  C  8  Z    0.061714   0.133892   0.007645   0.116801  -0.108088
   41  C  9  S    0.006462   0.008415  -0.007584  -0.014746  -0.000397
   42  C  9  S   -0.014437  -0.034048   0.021443   0.057969  -0.001197
   43  C  9  X    0.276412   0.104638  -0.078316   0.215537  -0.119443
   44  C  9  Y   -0.162166   0.105744   0.156196   0.028980  -0.033786
   45  C  9  Z   -0.014637   0.258186   0.185918  -0.014144   0.134448
   46  O 10  S   -0.055819   0.009999   0.034641  -0.021418   0.018411
   47  O 10  S    0.297704  -0.053814  -0.190409   0.119232  -0.105866
   48  O 10  X   -0.277995   0.183010   0.322682  -0.065483   0.155316
   49  O 10  Y    0.085221   0.037770  -0.028262   0.187104  -0.231062
   50  O 10  Z    0.270734   0.153592  -0.055768   0.120714   0.008623
   51  H 11  S    0.102719  -0.021065   0.270392  -0.110476  -0.166457
   52  H 12  S    0.067783   0.011756  -0.217629  -0.091820   0.010066
   53  H 13  S    0.008050  -0.039236  -0.239693  -0.251679   0.015710
   54  H 14  S    0.005998   0.094224  -0.076019  -0.244327  -0.002614
   55  H 15  S   -0.109019   0.081561  -0.114179   0.277022   0.157242
   56  H 16  S   -0.181696   0.079663   0.000206  -0.014180  -0.256879
   57  H 17  S    0.031009  -0.085713  -0.092950  -0.021931   0.012066
   58  H 18  S    0.223848  -0.056467   0.065197   0.048889   0.232999
   59  H 19  S    0.052412  -0.023358  -0.049585   0.163893  -0.174749
   60  H 20  S   -0.016213   0.105854  -0.092513  -0.129379   0.037654

                     31         32         33         34         35
                   -0.4448    -0.4166    -0.3568    -0.3143    -0.2712
                     A          A          A          A          A   
    1  C  1  S    0.009208   0.002095  -0.005648  -0.000052   0.027302
    2  C  1  S   -0.037901   0.006785   0.006876   0.000759  -0.131679
    3  C  1  X   -0.095339   0.119401  -0.074079   0.008665  -0.165726
    4  C  1  Y    0.140013   0.164810   0.052062  -0.022512  -0.165985
    5  C  1  Z   -0.103525   0.170905  -0.137695   0.021742  -0.318246
    6  C  2  S   -0.002703   0.020826   0.012980  -0.003309  -0.006645
    7  C  2  S    0.015268  -0.073847  -0.049589   0.010590   0.028332
    8  C  2  X    0.001644   0.124087   0.122001  -0.000722  -0.014077
    9  C  2  Y   -0.164487  -0.139616  -0.026849   0.019755   0.000781
   10  C  2  Z   -0.057137   0.159093   0.101812   0.004183  -0.139219
   11  C  3  S    0.014591  -0.005346  -0.011604  -0.002309  -0.012013
   12  C  3  S   -0.052145   0.021627   0.066245   0.010739   0.071764
   13  C  3  X   -0.081502  -0.017346   0.202595   0.012429   0.165051
   14  C  3  Y    0.096486   0.196067   0.132728  -0.022258   0.077203
   15  C  3  Z   -0.011678   0.033040   0.258581   0.011907   0.185714
   16  C  4  S   -0.023869   0.008949  -0.015857  -0.031822  -0.012603
   17  C  4  S    0.087571  -0.029132   0.085469   0.144800   0.069304
   18  C  4  X    0.082848  -0.049880  -0.151308  -0.096556  -0.110983
   19  C  4  Y   -0.096083  -0.009927  -0.097461   0.314549  -0.187289
   20  C  4  Z    0.022502  -0.011739  -0.278533  -0.048967  -0.239960
   21  C  5  S   -0.004608   0.017119   0.011810   0.007295  -0.001801
   22  C  5  S    0.007955  -0.063381  -0.041846  -0.023274   0.003351
   23  C  5  X   -0.085504  -0.014834   0.030973   0.112110   0.031104
   24  C  5  Y    0.180766  -0.149774  -0.081460   0.001499  -0.017199
   25  C  5  Z   -0.131327  -0.094571  -0.015220   0.101840  -0.083541
   26  C  6  S    0.002389  -0.006457   0.018111  -0.001438   0.005912
   27  C  6  S   -0.020107   0.037297  -0.078653   0.009211  -0.050609
   28  C  6  X    0.170641  -0.147338   0.119729  -0.004239   0.139001
   29  C  6  Y   -0.264804  -0.142093   0.174358   0.083113   0.142944
   30  C  6  Z    0.145187  -0.159207   0.119487  -0.051925   0.182359
   31  C  7  S    0.009997   0.003077  -0.009188  -0.012260  -0.006447
   32  C  7  S   -0.052105  -0.008960   0.036256   0.044396   0.025671
   33  C  7  X   -0.126216  -0.012287   0.243784  -0.140198  -0.157027
   34  C  7  Y    0.314535   0.018376   0.073042  -0.087588  -0.155817
   35  C  7  Z   -0.028582  -0.037146   0.375787  -0.044513  -0.229556
   36  C  8  S    0.005646  -0.000668   0.006440   0.037099  -0.005664
   37  C  8  S   -0.038455   0.002650  -0.027221  -0.165555   0.027868
   38  C  8  X    0.135935   0.056062   0.246417   0.089838  -0.244960
   39  C  8  Y   -0.153581   0.016369   0.162758   0.137582  -0.133447
   40  C  8  Z   -0.051428   0.097820   0.274061  -0.286215  -0.264574
   41  C  9  S    0.002636  -0.002313   0.006956   0.001060   0.009000
   42  C  9  S   -0.011144   0.012106  -0.025225  -0.002720  -0.037570
   43  C  9  X   -0.072789   0.273791  -0.049990  -0.005180   0.057933
   44  C  9  Y    0.157043   0.125755  -0.016119  -0.152459   0.092982
   45  C  9  Z   -0.051031   0.318253  -0.005410   0.121775   0.098687
   46  O 10  S    0.011113  -0.002739   0.000767  -0.000306  -0.000258
   47  O 10  S   -0.064623   0.016492  -0.006714   0.001536  -0.001256
   48  O 10  X    0.134297   0.247482   0.005270   0.168044   0.220654
   49  O 10  Y    0.211637   0.157412   0.070770   0.704803   0.004585
   50  O 10  Z   -0.232363   0.399557  -0.106120  -0.297008   0.342590
   51  H 11  S   -0.110816  -0.078782  -0.008667   0.010947   0.072668
   52  H 12  S    0.182769   0.044857   0.124397  -0.027632   0.031399
   53  H 13  S    0.165000   0.173181   0.060631  -0.018769  -0.025308
   54  H 14  S    0.103157   0.160370  -0.040410  -0.041102  -0.069993
   55  H 15  S   -0.041606  -0.086377  -0.069293   0.016595  -0.049212
   56  H 16  S    0.069965   0.000736  -0.103228  -0.110560  -0.042297
   57  H 17  S   -0.248210   0.050247   0.069497   0.113905  -0.009398
   58  H 18  S    0.190331  -0.067993   0.011887  -0.009176   0.080027
   59  H 19  S    0.094915   0.022741  -0.058411  -0.116496  -0.009534
   60  H 20  S   -0.203967  -0.017874   0.035681   0.120123  -0.000826

                     36         37         38         39         40
                   -0.2234     0.2067     0.2159     0.3540     0.3894
                     A          A          A          A          A   
    1  C  1  S   -0.025326   0.000460  -0.041470   0.031134  -0.030402
    2  C  1  S    0.090299  -0.028791   0.208751  -0.134079   0.160003
    3  C  1  X    0.081308  -0.095459   0.192361  -0.195704   0.191030
    4  C  1  Y    0.075765  -0.075358   0.182204  -0.099193   0.191458
    5  C  1  Z    0.168767  -0.081357   0.318571  -0.376890   0.237191
    6  C  2  S    0.021706   0.018747  -0.007576  -0.001263  -0.007705
    7  C  2  S   -0.105095  -0.105404   0.043113   0.009082   0.057396
    8  C  2  X    0.316702   0.279402  -0.160674  -0.027538  -0.183107
    9  C  2  Y    0.076650   0.109797  -0.049627  -0.013715  -0.062677
   10  C  2  Z    0.434464   0.432600  -0.148879  -0.050595  -0.268735
   11  C  3  S   -0.030054   0.025802   0.029765  -0.040279  -0.021911
   12  C  3  S    0.113607  -0.149950  -0.130249   0.184674   0.121914
   13  C  3  X    0.163423  -0.161286  -0.132270   0.316218   0.066433
   14  C  3  Y    0.100337  -0.158643  -0.076554   0.147885   0.148875
   15  C  3  Z    0.191236  -0.278984  -0.128187   0.392900   0.187204
   16  C  4  S    0.031973   0.009139  -0.022287   0.051462  -0.008586
   17  C  4  S   -0.123843  -0.071846   0.097651  -0.249595   0.063765
   18  C  4  X    0.101780   0.142194  -0.130239   0.223243   0.042782
   19  C  4  Y    0.069973   0.084263  -0.117554   0.276351  -0.014887
   20  C  4  Z    0.185078   0.150468  -0.202208   0.418656   0.035944
   21  C  5  S   -0.022666   0.019158  -0.006827   0.002373   0.020653
   22  C  5  S    0.107802  -0.108364   0.037484  -0.013710  -0.115167
   23  C  5  X    0.208460  -0.257494   0.046831  -0.059692  -0.016901
   24  C  5  Y    0.383126  -0.374391   0.127267  -0.025382  -0.113278
   25  C  5  Z    0.338962  -0.382276   0.176057   0.039380  -0.083250
   26  C  6  S    0.030045   0.019815   0.009482  -0.053891   0.006561
   27  C  6  S   -0.119072  -0.111388  -0.017224   0.270001  -0.014104
   28  C  6  X    0.147568   0.141582   0.043827  -0.260160   0.108577
   29  C  6  Y    0.130869   0.140501   0.053214  -0.296997   0.084636
   30  C  6  Z    0.192584   0.269435   0.031695  -0.346904   0.153345
   31  C  7  S    0.008319  -0.015184   0.009060   0.001348  -0.001001
   32  C  7  S   -0.034233   0.073494  -0.042307  -0.008455   0.007876
   33  C  7  X   -0.056274   0.169261   0.242409   0.235648   0.221446
   34  C  7  Y    0.014708  -0.004134   0.202002   0.147016   0.132865
   35  C  7  Z   -0.079536   0.205599   0.340022   0.318603   0.286383
   36  C  8  S   -0.004765   0.007496  -0.002924  -0.001411  -0.002306
   37  C  8  S    0.021404  -0.033502   0.013114   0.008378   0.012989
   38  C  8  X   -0.116221  -0.165767  -0.168235  -0.135014  -0.328482
   39  C  8  Y   -0.077024  -0.081663  -0.092886  -0.071774  -0.171472
   40  C  8  Z   -0.111853  -0.250256  -0.229225  -0.196286  -0.448006
   41  C  9  S    0.009036  -0.018636   0.003406  -0.001756  -0.000268
   42  C  9  S   -0.038306   0.089402  -0.018388   0.011668   0.003384
   43  C  9  X   -0.012755  -0.017127  -0.252457  -0.130552   0.342672
   44  C  9  Y    0.066048  -0.133228  -0.108689  -0.063019   0.189450
   45  C  9  Z   -0.015296  -0.026450  -0.350110  -0.167946   0.465069
   46  O 10  S   -0.000120   0.002085  -0.000906   0.001451   0.000128
   47  O 10  S   -0.001298  -0.009064   0.004989  -0.009502  -0.001439
   48  O 10  X   -0.004617   0.043472   0.302739   0.085819  -0.251231
   49  O 10  Y   -0.087898   0.090357   0.144374   0.061272  -0.134821
   50  O 10  Z    0.035206   0.052759   0.404155   0.137820  -0.330905
   51  H 11  S    0.002692   0.044959  -0.056624  -0.011873  -0.037136
   52  H 12  S    0.072354   0.130734  -0.061027  -0.066919  -0.071165
   53  H 13  S    0.047136   0.016161  -0.004502  -0.002207   0.010141
   54  H 14  S    0.060962   0.129065  -0.043984   0.032525  -0.079862
   55  H 15  S   -0.003106   0.076827   0.005817   0.001328  -0.040102
   56  H 16  S    0.005899   0.067676   0.002769   0.019004  -0.091460
   57  H 17  S   -0.061085   0.020075  -0.006474  -0.002966   0.030495
   58  H 18  S    0.005107   0.054451  -0.068534  -0.057253  -0.086163
   59  H 19  S    0.023129  -0.030703   0.008695   0.006581  -0.017232
   60  H 20  S   -0.024819   0.041528  -0.022124  -0.013726  -0.016489

                     41         42         43         44         45
                    0.5165     0.5729     0.5898     0.6220     0.6227
                     A          A          A          A          A   
    1  C  1  S   -0.010615   0.024669   0.003102  -0.007567   0.036468
    2  C  1  S    0.037487  -0.159154  -0.018433   0.051055  -0.230154
    3  C  1  X    0.246149  -0.135473  -0.108999  -0.062069  -0.248044
    4  C  1  Y    0.212115   0.209196   0.188604   0.027530   0.310154
    5  C  1  Z    0.334630   0.057023  -0.051244  -0.020268   0.012147
    6  C  2  S   -0.031065   0.020531   0.013930  -0.000736   0.042411
    7  C  2  S    0.194219  -0.127461  -0.087413   0.001639  -0.268129
    8  C  2  X   -0.217458  -0.048070  -0.034058  -0.039388  -0.072871
    9  C  2  Y   -0.029356   0.247451   0.195968  -0.032044   0.487019
   10  C  2  Z   -0.295578  -0.038002  -0.017355   0.008807  -0.038022
   11  C  3  S   -0.011462   0.013114   0.025918   0.027881   0.030964
   12  C  3  S    0.041879  -0.084615  -0.166086  -0.175271  -0.194694
   13  C  3  X    0.211744   0.019989   0.082385   0.092613   0.034076
   14  C  3  Y    0.203542   0.254630   0.145685  -0.102696   0.349378
   15  C  3  Z    0.376901  -0.109041  -0.051581   0.068611  -0.197357
   16  C  4  S    0.043393  -0.000290   0.047385   0.111523  -0.010288
   17  C  4  S   -0.229963  -0.020673  -0.290859  -0.655858   0.075795
   18  C  4  X    0.312954  -0.034041   0.105746   0.138941  -0.034587
   19  C  4  Y    0.165852   0.364697   0.026401  -0.544478  -0.240999
   20  C  4  Z    0.372493  -0.193456  -0.150291  -0.090683   0.116227
   21  C  5  S    0.010264   0.043934   0.019024   0.002410  -0.050080
   22  C  5  S   -0.078888  -0.274514  -0.121445  -0.019863   0.314938
   23  C  5  X   -0.163471  -0.164336  -0.083558  -0.032612   0.175227
   24  C  5  Y   -0.272627   0.264074   0.122382   0.026855  -0.230329
   25  C  5  Z   -0.240402  -0.135240  -0.131214   0.196699   0.168339
   26  C  6  S    0.040378   0.055072  -0.065053  -0.015301   0.006481
   27  C  6  S   -0.213914  -0.347941   0.377575   0.088995  -0.023845
   28  C  6  X    0.207506  -0.333615  -0.048740  -0.209969   0.191100
   29  C  6  Y    0.168660   0.088186   0.458434   0.044309  -0.280606
   30  C  6  Z    0.436365   0.039349  -0.103890   0.054484  -0.019099
   31  C  7  S   -0.015740   0.050687   0.021230   0.051249  -0.048331
   32  C  7  S    0.089697  -0.309304  -0.113771  -0.342856   0.288407
   33  C  7  X   -0.161289  -0.168843   0.019768  -0.174848   0.119199
   34  C  7  Y   -0.178413  -0.102709   0.521673  -0.038198  -0.167211
   35  C  7  Z   -0.210904   0.224451  -0.294707   0.184868  -0.019110
   36  C  8  S    0.014586  -0.010838   0.023343   0.111049   0.000271
   37  C  8  S   -0.084977   0.041415  -0.120248  -0.683291   0.002886
   38  C  8  X    0.172930  -0.114260   0.204858   0.288209  -0.022489
   39  C  8  Y    0.070826  -0.213628   0.456345  -0.235394  -0.088851
   40  C  8  Z    0.231496   0.128127  -0.303701  -0.168309   0.046201
   41  C  9  S   -0.017885   0.090810  -0.088999  -0.128740  -0.018637
   42  C  9  S    0.102225  -0.535354   0.525817   0.757172   0.107624
   43  C  9  X   -0.172895  -0.076914   0.196929   0.330472  -0.020805
   44  C  9  Y   -0.183703   0.108244   0.228180  -0.330493  -0.178286
   45  C  9  Z   -0.236861   0.032956  -0.235458  -0.014796   0.074574
   46  O 10  S    0.002662  -0.018910   0.013330   0.007189   0.003875
   47  O 10  S   -0.015601   0.118465  -0.079603  -0.029326  -0.025282
   48  O 10  X    0.089830   0.130522  -0.112348  -0.047346  -0.020421
   49  O 10  Y    0.088668  -0.088452  -0.046946   0.073182   0.065306
   50  O 10  Z    0.139245  -0.076596   0.099470  -0.037696  -0.008815
   51  H 11  S    0.069057   0.309061   0.174705   0.021165   0.463842
   52  H 12  S   -0.001955  -0.125790  -0.220047  -0.078029  -0.241222
   53  H 13  S   -0.041942   0.347788   0.258775  -0.030112   0.652135
   54  H 14  S   -0.011260  -0.215430  -0.043160   0.224804  -0.278495
   55  H 15  S    0.066286   0.273342   0.251933   0.035121   0.439594
   56  H 16  S    0.032558   0.311171   0.348949   0.244157  -0.261875
   57  H 17  S   -0.021332   0.518001   0.274548  -0.057431  -0.517346
   58  H 18  S    0.053282   0.538524  -0.087280   0.171708  -0.235270
   59  H 19  S   -0.003854   0.483279  -0.424414   0.398789  -0.138601
   60  H 20  S    0.085814   0.166073  -0.390557   0.656389   0.100391

                     46         47         48         49         50
                    0.6647     0.6976     0.7143     0.7259     0.7411
                     A          A          A          A          A   
    1  C  1  S    0.034339  -0.116273  -0.026708   0.126751  -0.066448
    2  C  1  S   -0.215399   0.739404   0.161560  -0.811073   0.419340
    3  C  1  X    0.209927   0.203152  -0.298029   0.339478   0.200325
    4  C  1  Y   -0.173306  -0.013351   0.037246  -0.377696   0.124430
    5  C  1  Z    0.049634  -0.373961   0.120294   0.177190  -0.252016
    6  C  2  S   -0.010936   0.070766   0.062437  -0.014092  -0.006879
    7  C  2  S    0.064200  -0.431646  -0.387648   0.087384   0.069319
    8  C  2  X    0.101180   0.099748  -0.073372   0.294857   0.071498
    9  C  2  Y   -0.040264   0.060576   0.013003   0.030189  -0.003428
   10  C  2  Z   -0.097910  -0.035898   0.050718  -0.209868   0.018973
   11  C  3  S    0.001829  -0.088453  -0.122579  -0.090372  -0.066967
   12  C  3  S   -0.012286   0.553881   0.786019   0.581931   0.421570
   13  C  3  X    0.136811  -0.037827  -0.451923  -0.050943  -0.201314
   14  C  3  Y    0.120580   0.157893  -0.104669   0.411486   0.196592
   15  C  3  Z   -0.142851  -0.229603   0.110020  -0.321149  -0.016026
   16  C  4  S    0.013317  -0.024199  -0.045366   0.025281   0.130877
   17  C  4  S   -0.091111   0.154146   0.300365  -0.142054  -0.817996
   18  C  4  X    0.308216   0.256997  -0.013278  -0.061914  -0.194023
   19  C  4  Y    0.234031   0.054688  -0.033016  -0.138826   0.034507
   20  C  4  Z   -0.391321  -0.033216   0.206911   0.146883  -0.094261
   21  C  5  S    0.000263   0.056022   0.046785   0.001556  -0.146719
   22  C  5  S   -0.008955  -0.353592  -0.306013  -0.006541   0.935276
   23  C  5  X    0.260414   0.079887  -0.013671  -0.111629  -0.129691
   24  C  5  Y    0.128166  -0.069943   0.021339  -0.051214  -0.019582
   25  C  5  Z   -0.159361  -0.048513   0.042561   0.122288  -0.088315
   26  C  6  S    0.080151  -0.079927   0.031165  -0.051489   0.115969
   27  C  6  S   -0.479204   0.509636  -0.192365   0.304551  -0.728587
   28  C  6  X    0.241454   0.355778  -0.251471  -0.150151  -0.183053
   29  C  6  Y   -0.395826   0.062462  -0.162037   0.124537   0.151562
   30  C  6  Z   -0.148176   0.020731   0.216498   0.003267  -0.151867
   31  C  7  S   -0.120856   0.061849  -0.085973   0.052977  -0.026081
   32  C  7  S    0.744765  -0.409159   0.547865  -0.325611   0.161013
   33  C  7  X    0.243803  -0.130087  -0.057311  -0.078879   0.167095
   34  C  7  Y   -0.166428  -0.043277   0.058338   0.121659  -0.047654
   35  C  7  Z   -0.020678  -0.026084   0.010666   0.091116  -0.082845
   36  C  8  S    0.091386  -0.003975   0.106836  -0.003624  -0.043154
   37  C  8  S   -0.551680   0.011693  -0.682800   0.019232   0.287575
   38  C  8  X    0.093561   0.164266   0.021589   0.032940  -0.097705
   39  C  8  Y   -0.109946  -0.187974   0.090654   0.074989   0.045621
   40  C  8  Z   -0.071429   0.023931  -0.048300  -0.075643   0.018418
   41  C  9  S    0.005064   0.028058  -0.048583  -0.040349  -0.023986
   42  C  9  S   -0.042761  -0.182640   0.293100   0.242757   0.143244
   43  C  9  X    0.205019   0.058801   0.054479   0.001837  -0.067219
   44  C  9  Y    0.202457  -0.054047   0.296058  -0.086754  -0.275171
   45  C  9  Z   -0.207641  -0.133933  -0.249859  -0.030307   0.179201
   46  O 10  S   -0.017012  -0.020918   0.011314   0.007641   0.010137
   47  O 10  S    0.120888   0.143787  -0.074657  -0.050695  -0.069283
   48  O 10  X    0.104713   0.157663  -0.083714  -0.047779  -0.058153
   49  O 10  Y   -0.148527  -0.067003  -0.058936   0.046082   0.118616
   50  O 10  Z   -0.034854  -0.051990   0.118292   0.031720  -0.018823
   51  H 11  S   -0.112417  -0.651445   0.182814   0.042661  -0.388179
   52  H 12  S    0.322729  -0.426007  -0.128379   0.860185  -0.323736
   53  H 13  S   -0.083323   0.285458   0.225517  -0.044224  -0.021854
   54  H 14  S   -0.088679  -0.457893  -0.429676  -0.737261  -0.416032
   55  H 15  S    0.220459  -0.092057  -0.733766   0.089414  -0.202283
   56  H 16  S    0.581440   0.083264  -0.285530  -0.112481   0.403563
   57  H 17  S    0.041767   0.117241   0.148222  -0.032406  -0.392562
   58  H 18  S   -0.089079  -0.534351   0.327897  -0.001742   0.513261
   59  H 19  S   -0.468339   0.288975  -0.261288   0.173248  -0.188709
   60  H 20  S    0.420350   0.199385   0.256478  -0.082495  -0.185372

                     51         52         53         54         55
                    0.7566     0.7867     0.8227     0.8762     0.8828
                     A          A          A          A          A   
    1  C  1  S    0.067796   0.037199  -0.025595  -0.010201   0.023124
    2  C  1  S   -0.438006  -0.232718   0.159015   0.071144  -0.168446
    3  C  1  X   -0.390805   0.143999  -0.092742  -0.096250   0.099797
    4  C  1  Y    0.146150   0.437565  -0.316153   0.125070   0.194121
    5  C  1  Z    0.275182  -0.313908   0.254313  -0.025689  -0.045815
    6  C  2  S   -0.024340  -0.164974   0.110688  -0.012978   0.001672
    7  C  2  S    0.160288   1.092136  -0.740507   0.088140  -0.011584
    8  C  2  X   -0.062507   0.158588  -0.123602   0.059185   0.312937
    9  C  2  Y   -0.022588  -0.030404   0.002554  -0.191705   0.005656
   10  C  2  Z    0.087723   0.241292  -0.169027   0.052209  -0.231168
   11  C  3  S   -0.056032   0.053355  -0.020936  -0.006681  -0.023382
   12  C  3  S    0.360536  -0.335183   0.131491   0.052785   0.168439
   13  C  3  X   -0.452720  -0.358843   0.300137  -0.029190   0.136690
   14  C  3  Y   -0.120579   0.364921  -0.304860   0.079509  -0.172102
   15  C  3  Z    0.310938   0.074371  -0.039001  -0.073275  -0.105709
   16  C  4  S    0.054542  -0.053856  -0.012667  -0.033231  -0.082755
   17  C  4  S   -0.344933   0.339199   0.082711   0.236128   0.574362
   18  C  4  X    0.202117  -0.230111  -0.242950   0.509994   0.299173
   19  C  4  Y    0.116178   0.220993   0.445910   0.020231  -0.360039
[...]
 18   H            X -0.03371439  0.00696294  0.03556609 -0.02207715 -0.00435217
                   Y  0.10821637  0.01862432 -0.00170983  0.09423065  0.01950685
                   Z  0.02559105  0.00893706  0.00969645 -0.01107645  0.00188465
 19   H            X -0.03975313 -0.00213788  0.01441956 -0.01646771 -0.00064871
                   Y  0.05926431  0.00314891 -0.01657769  0.17295736  0.03513801
                   Z -0.00030089  0.00011687 -0.00735163 -0.05171463 -0.01216183
 20   H            X  0.00571549  0.00013071 -0.00146060  0.02676991  0.06283635
                   Y -0.01522694 -0.00014543  0.00998847  0.11258284  0.03876512
                   Z  0.00601429 -0.00134926 -0.01331677 -0.07765177 -0.06368117

 TRANS. SAYVETZ    X  0.00000299  0.00000094  0.00000256  0.00000063  0.00000066
                   Y -0.00000025  0.00000069  0.00000160  0.00000184  0.00000023
                   Z -0.00000309  0.00000162 -0.00000097 -0.00000108 -0.00000268
               TOTAL  0.00000430  0.00000199  0.00000317  0.00000223  0.00000277

   ROT. SAYVETZ    X  0.00004300 -0.00022153 -0.00005324  0.00003818 -0.00001487
                   Y -0.00009508 -0.00003823  0.00010809  0.00000504 -0.00000511
                   Z  0.00003982 -0.00004230 -0.00002199  0.00001450 -0.00000426
               TOTAL  0.00011169  0.00022875  0.00012248  0.00004115  0.00001629

                           51          52          53          54          55
       FREQUENCY:      3630.08     3634.32     3686.09     3693.06     3695.66  
        SYMMETRY:         A           A           A           A           A   
    REDUCED MASS:      1.06267     1.06462     1.09101     1.09411     1.09590
    IR INTENSITY:      0.09885     0.07246     0.19344     0.04546     0.14156

  1   C            X -0.02669044  0.01400236 -0.00229998  0.00044734  0.00283213
                   Y -0.01993445  0.01097611 -0.00373685 -0.00140799  0.00808555
                   Z  0.04983600 -0.02774365  0.00472250  0.00135977 -0.00692644
  2   C            X  0.00476342 -0.00456671 -0.00366354 -0.00238672  0.01699149
                   Y -0.00757790 -0.00279989  0.01698890  0.00975593 -0.07754619
                   Z  0.00214302  0.00493219 -0.00304819 -0.00153533  0.01389596
  3   C            X  0.02981909  0.05816717  0.00544771  0.00194540 -0.00790829
                   Y -0.00805389 -0.01579467 -0.00363671 -0.00091028  0.00757402
                   Z -0.00519328 -0.00865336 -0.00036833 -0.00133265  0.00082603
  4   C            X -0.00095307 -0.00146288  0.02368733 -0.02392944  0.00509807
                   Y -0.00158270 -0.00054494  0.02573990 -0.02254810  0.00437182
                   Z  0.00264398  0.00056648 -0.04563897  0.04253006 -0.00779121
  5   C            X -0.00161309 -0.00013971  0.01609775  0.00728148  0.00089419
                   Y  0.00306280  0.00104028 -0.03348651 -0.00565822 -0.00105581
                   Z -0.00135881 -0.00073283  0.01623877  0.00000736  0.00030124
  6   C            X  0.00305440  0.00093440 -0.03716515 -0.05840129 -0.01871909
                   Y -0.00076233 -0.00026716  0.00870271  0.01131438  0.00347124
                   Z -0.00086832  0.00087760  0.00776168  0.01396766  0.00538072
  7   C            X -0.00052217 -0.00003806  0.00508786  0.01075406  0.00490787
                   Y -0.00046791  0.00007701  0.00289154  0.00689840  0.00347532
                   Z -0.00004402  0.00009645 -0.00505288 -0.01089509 -0.00513542
  8   C            X -0.00018856 -0.00011469  0.00039459  0.00132295  0.00052139
                   Y  0.00046329  0.00015123 -0.00325196 -0.00783515 -0.00337192
                   Z -0.00013696  0.00005775  0.00080627  0.00193053  0.00088936
  9   C            X -0.00020294 -0.00007026  0.00011421 -0.00010852  0.00005081
                   Y  0.00003543 -0.00013186 -0.00123082  0.00178373 -0.00015411
                   Z -0.00029181 -0.00026690  0.00031185 -0.00056702 -0.00003125
 10   O            X -0.00000241 -0.00004093 -0.00001864  0.00009304 -0.00001820
                   Y  0.00000202  0.00001528  0.00006982 -0.00021910  0.00003140
                   Z  0.00001716 -0.00000322 -0.00002957  0.00002609  0.00002272
 11   H            X  0.44404548 -0.23870491  0.03162736  0.00443443 -0.02439516
                   Y -0.28925704  0.15535635 -0.01860060 -0.00215256  0.01366871
                   Z -0.28271998  0.15137486 -0.01822174 -0.00245677  0.01397546
 12   H            X -0.17107112  0.09328354 -0.01661247 -0.00655821  0.02852088
                   Y  0.49777738 -0.27085233  0.05194922  0.01835793 -0.07617484
                   Z -0.27388853  0.15043161 -0.02621823 -0.00992642  0.04141194
 13   H            X -0.03172422 -0.01210627  0.04466343  0.02574679 -0.20483284
                   Y  0.13612362  0.04064281 -0.18617809 -0.10813355  0.86177881
                   Z -0.02845663 -0.00672318  0.03859842  0.02214360 -0.17621197
 14   H            X -0.13230731 -0.25661888 -0.02586135 -0.00581211  0.03725014
                   Y  0.27005148  0.51873730  0.05644933  0.01242022 -0.07838673
                   Z -0.10697170 -0.20629677 -0.02034676 -0.00478384  0.03310888
 15   H            X -0.19956647 -0.37778181 -0.02339612 -0.00788111  0.01675754
                   Y -0.18542734 -0.35159765 -0.02140715 -0.00730000  0.01438854
                   Z  0.14848921  0.28199534  0.01949094  0.00684862 -0.01420813
 16   H            X  0.01484950  0.00450790 -0.27013929  0.25057092 -0.04736850
                   Y  0.01599441  0.00475556 -0.28104121  0.25857827 -0.04863686
                   Z -0.03261717 -0.00999017  0.52499244 -0.48304793  0.08969260
 17   H            X  0.01806304  0.00561710 -0.19945168 -0.03768980 -0.00940182
                   Y -0.03607188 -0.01138845  0.38727572  0.07097441  0.01805287
                   Z  0.01690377  0.00540290 -0.18791537 -0.03347391 -0.00872878
 18   H            X -0.03711637 -0.01319034  0.42779503  0.66187451  0.20997911
                   Y  0.00647989  0.00230029 -0.08580215 -0.13216424 -0.04223141
                   Z  0.00641269  0.00200174 -0.09168177 -0.14378335 -0.04680120
 19   H            X  0.00410631  0.00071217 -0.05022550 -0.10961246 -0.05104765
                   Y  0.00442949  0.00034374 -0.04473164 -0.09739645 -0.04535751
                   Z -0.00522553 -0.00071361  0.05703082  0.12351264  0.05762422
 20   H            X  0.00185506  0.00060715 -0.00979659 -0.02552875 -0.01076084
                   Y -0.00556476 -0.00169290  0.03405229  0.09277838  0.03906315
                   Z  0.00139952  0.00008852 -0.00631304 -0.01679383 -0.00699914

 TRANS. SAYVETZ    X -0.00000018 -0.00000010 -0.00000098  0.00000074 -0.00000007
                   Y -0.00000057  0.00000027 -0.00000048 -0.00000033  0.00000062
                   Z  0.00000157  0.00000064 -0.00000027  0.00000048  0.00000108
               TOTAL  0.00000168  0.00000071  0.00000112  0.00000094  0.00000125

   ROT. SAYVETZ    X  0.00002303  0.00002508 -0.00001069  0.00001070 -0.00000440
                   Y  0.00001636 -0.00002217  0.00000333 -0.00003927 -0.00000287
                   Z -0.00001396 -0.00001053  0.00001039  0.00001381  0.00000877
               TOTAL  0.00003151  0.00003509  0.00001528  0.00004298  0.00001022

                           56          57          58          59          60
       FREQUENCY:      3704.05     3712.80     3736.28     3777.40     3780.01  
        SYMMETRY:         A           A           A           A           A   
    REDUCED MASS:      1.09133     1.10022     1.10603     1.11642     1.11674
    IR INTENSITY:      0.55028     0.10236     0.06837     0.00320     0.01482

  1   C            X -0.00083118 -0.00135426  0.00026561  0.05487259  0.02014001
                   Y  0.00007942  0.00142111 -0.00032810 -0.06930643 -0.02488932
                   Z  0.00032936 -0.00040041  0.00004686 -0.00045725 -0.00058444
  2   C            X -0.00098882  0.00165735 -0.00001993 -0.00043047  0.00139309
                   Y  0.00529674 -0.00843523  0.00006516 -0.00228695 -0.00517446
                   Z -0.00092730  0.00126459  0.00000631  0.00090224  0.00035844
  3   C            X  0.00030769 -0.00010639  0.00011514  0.00472448 -0.01420594
                   Y -0.00040772  0.00143049 -0.00028082  0.02742994 -0.07537647
                   Z  0.00029858 -0.00118670  0.00014699 -0.01587485  0.04396199
  4   C            X  0.00467113 -0.01565107  0.00125927  0.00011924 -0.00031186
                   Y  0.00353591 -0.01035937  0.00109286 -0.00003395 -0.00003605
                   Z -0.00728798  0.02172566 -0.00185848  0.00002670  0.00084119
  5   C            X -0.00771830  0.03154863 -0.00213357  0.00009248  0.00036843
                   Y  0.01222830 -0.05772514  0.00395237 -0.00036980 -0.00058757
                   Z -0.00561950  0.03095725 -0.00209765  0.00024929  0.00035763
  6   C            X  0.01531236  0.03381471 -0.00485747  0.00070288  0.00081586
                   Y -0.00546314 -0.00493429  0.00242349  0.00021850  0.00005903
                   Z -0.00241482 -0.01135874  0.00095425 -0.00009825 -0.00006051
  7   C            X  0.03868838  0.00203822 -0.03232175  0.00030667  0.00027685
                   Y  0.03515017  0.00423499 -0.01891776  0.00019629  0.00009613
                   Z -0.04355030 -0.00327794  0.03194442 -0.00062222 -0.00039633
  8   C            X  0.00799637  0.00302515  0.02526661 -0.00003299 -0.00017414
                   Y -0.03942960 -0.01019468 -0.06989152 -0.00009826  0.00004307
                   Z  0.00901987  0.00164811  0.00798151 -0.00005319 -0.00000221
  9   C            X  0.00044167 -0.00027695  0.00139421 -0.00002995 -0.00009915
                   Y  0.00123023  0.00114084  0.00119445 -0.00000008 -0.00002500
                   Z -0.00083699 -0.00020821 -0.00153948  0.00009530 -0.00017486
 10   O            X  0.00002643  0.00011909 -0.00026714  0.00001498 -0.00002450
                   Y -0.00019861 -0.00014652 -0.00003923  0.00000501 -0.00000299
                   Z  0.00005301 -0.00003125  0.00022507 -0.00000392 -0.00001759
 11   H            X  0.00567644  0.00790512 -0.00176876 -0.46116719 -0.16758796
                   Y -0.00343223 -0.00483320  0.00132588  0.29881991  0.10896463
                   Z -0.00339784 -0.00466442  0.00116533  0.29766941  0.10800059
 12   H            X -0.00053236  0.00504784 -0.00155544 -0.17970664 -0.06397318
                   Y  0.00056396 -0.01204590  0.00311711  0.52240704  0.18696135
                   Z -0.00081825  0.00669812 -0.00201275 -0.29428563 -0.10508179
 13   H            X  0.01391256 -0.02206192  0.00023847 -0.00286480 -0.01477394
                   Y -0.05873560  0.09327797 -0.00044567  0.02739786  0.06150125
                   Z  0.01180251 -0.01893508  0.00010979 -0.00702135 -0.00987292
 14   H            X -0.00195751  0.00537670 -0.00123066  0.09430104 -0.25688431
                   Y  0.00473192 -0.01150392  0.00305888 -0.18721182  0.51091519
                   Z -0.00201042  0.00537554 -0.00103485  0.07547158 -0.20482315
 15   H            X  0.00003101 -0.00604242  0.00044029 -0.15055271  0.41566976
                   Y -0.00014160 -0.00547507  0.00032574 -0.13758079  0.38112472
                   Z -0.00005860  0.00494405 -0.00030564  0.11063012 -0.30561734
 16   H            X -0.04182593  0.12645960 -0.00963228 -0.00092161  0.00537634
                   Y -0.04358313  0.12867779 -0.00974775 -0.00077928  0.00538803
                   Z  0.08077655 -0.24030434  0.01843745  0.00180284 -0.01114505
 17   H            X  0.07542320 -0.33726660  0.02186327 -0.00178885 -0.00362717
                   Y -0.14305175  0.64876126 -0.04114647  0.00371722  0.00697077
                   Z  0.07011657 -0.31874180  0.02037052 -0.00186084 -0.00329006
 18   H            X -0.17395885 -0.36498690  0.05127188 -0.01157424 -0.00908413
                   Y  0.03684851  0.07281711 -0.01144901  0.00189415  0.00172967
                   Z  0.03688097  0.08142127 -0.01114931  0.00200674  0.00174618
 19   H            X -0.43922275 -0.03460250  0.28693549 -0.00403723 -0.00269554
                   Y -0.39767808 -0.03282139  0.25695524 -0.00318625 -0.00219974
                   Z  0.49389548  0.03923178 -0.32116695  0.00410014  0.00267043
 20   H            X -0.12712423 -0.03296840 -0.21096832 -0.00020409  0.00029538
                   Y  0.46212467  0.11875351  0.75938926  0.00132842 -0.00048677
                   Z -0.08091029 -0.02084423 -0.13168666  0.00006099  0.00020897

 TRANS. SAYVETZ    X  0.00000004 -0.00000068 -0.00000045  0.00000002  0.00000004
                   Y -0.00000016 -0.00000011  0.00000024 -0.00000001  0.00000007
                   Z -0.00000024 -0.00000071  0.00000027  0.00000001  0.00000009
               TOTAL  0.00000029  0.00000099  0.00000058  0.00000003  0.00000012

   ROT. SAYVETZ    X -0.00001858  0.00000544  0.00000276 -0.00000836  0.00000270
                   Y  0.00001889  0.00000319 -0.00000846 -0.00002481  0.00001314
                   Z -0.00001050 -0.00001312  0.00000241  0.00001044 -0.00000147
               TOTAL  0.00002851  0.00001456  0.00000922  0.00002819  0.00001350

 REFERENCE ON SAYVETZ CONDITIONS - A. SAYVETZ, J.CHEM.PHYS., 7, 383-389(1939).

 NOTE - THE MODES J,K ARE ORTHONORMALIZED ACCORDING TO
 SUM ON I   M(I) * (X(I,J)*X(I,K) + Y(I,J)*Y(I,K) + Z(I,J)*Z(I,K)) = DELTA(J,K)

  MODE FREQ(CM**-1)  SYMMETRY  RED. MASS  IR INTENS.
     1    1060.365    A        9.324688    0.064343
     2       0.144    A        6.523975    0.000130
     3       0.014    A        6.699821    0.000000
     4       0.005    A        6.702745    0.000000
     5       1.405    A        4.881860    0.013468
     6       5.046    A        4.935369    0.003976
     7       6.224    A        4.644554    0.010914
     8     104.132    A        4.138036    0.029762
     9     203.670    A        3.551326    0.016631
    10     265.245    A        4.167062    0.030691
    11     381.413    A        5.277027    0.035421
    12     437.614    A        2.307232    0.075476
    13     465.616    A        3.414251    0.109576
    14     493.043    A        3.992245    0.077136
    15     506.440    A        4.789659    0.105000
    16     552.683    A        1.961623    0.248699
    17     575.845    A        2.545777    0.264901
    18     610.978    A        4.901305    0.016013
    19     677.217    A        5.711266    0.076602
    20     840.260    A        3.287443    0.033034
    21     851.563    A        4.185989    0.032905
    22     926.855    A        1.667098    2.621679
    23     938.109    A        1.761295    0.121156
    24     964.341    A        1.772473    0.902872
    25    1004.119    A        1.456942    0.150406
    26    1040.445    A        1.587007    0.061904
    27    1092.368    A        1.590179    0.228086
    28    1119.736    A        2.732656    0.001835
    29    1166.736    A        2.141547    0.057040
    30    1209.133    A        1.282444    0.003078
    31    1214.218    A        1.508098    0.090254
    32    1240.833    A        1.141104    0.082566
    33    1270.216    A        1.287368    0.408592
    34    1301.613    A        1.134614    0.247607
    35    1318.495    A        1.219222    0.093701
    36    1341.284    A        1.231500    0.051303
    37    1365.535    A        1.156041    0.010767
    38    1386.068    A        1.275971    0.048819
    39    1418.710    A        1.831287    0.674027
    40    1471.056    A        1.323609    0.088157
    41    1488.627    A        1.670925    0.001691
    42    1599.389    A        1.598205    0.164878
    43    1637.161    A        1.712711    0.166590
    44    1668.012    A        1.524682    0.029335
    45    1718.728    A        2.486362    0.476513
    46    1758.374    A        1.912210    0.035438
    47    1813.503    A        1.256190    0.224315
    48    1856.577    A        2.349657    0.040077
    49    2009.745    A        7.078397    0.062089
    50    2080.653    A       10.639059    1.818258
    51    3630.078    A        1.062666    0.098851
    52    3634.319    A        1.064621    0.072456
    53    3686.086    A        1.091014    0.193439
    54    3693.057    A        1.094113    0.045461
    55    3695.660    A        1.095901    0.141556
    56    3704.053    A        1.091326    0.550280
    57    3712.802    A        1.100222    0.102362
    58    3736.282    A        1.106026    0.068368
    59    3777.401    A        1.116417    0.003204
    60    3780.009    A        1.116742    0.014819

     -------------------------------
     THERMOCHEMISTRY AT T=  298.15 K
     -------------------------------

 USING IDEAL GAS, RIGID ROTOR, HARMONIC NORMAL MODE APPROXIMATIONS.
 P=  1.01325E+05 PASCAL.
 ALL FREQUENCIES ARE SCALED BY   1.00000
 THE MOMENTS OF INERTIA ARE (IN AMU*BOHR**2)
            852.46011          1312.32419          1651.70370
 THE ROTATIONAL SYMMETRY NUMBER IS  1.0
 THE ROTATIONAL CONSTANTS ARE (IN GHZ)
      2.11516     1.37397     1.09165
   1 IMAGINARY FREQUENCY VIBRATION(S) IS(ARE) EXCLUDED
     FROM THE FOLLOWING THERMOCHEMICAL ANALYSIS.
      8 -     60 VIBRATIONAL MODES ARE USED IN THERMOCHEMISTRY.
 THE HARMONIC ZERO POINT ENERGY IS (SCALED BY   1.000)
        0.192360 HARTREE/MOLECULE    42218.052459 CM**-1/MOLECULE 
      120.707590 KCAL/MOL              505.040558 KJ/MOL

               Q               LN Q
 ELEC.     1.00000E+00       0.000000
 TRANS.    6.10192E+07      17.926699
 ROT.      4.86592E+05      13.095182
 VIB.      1.44463E+01       2.670439
 TOT.      4.28932E+14      33.692320

              E         H         G         CV        CP        S
           KJ/MOL    KJ/MOL    KJ/MOL   J/MOL-K   J/MOL-K   J/MOL-K
 ELEC.      0.000     0.000     0.000     0.000     0.000     0.000
 TRANS.     3.718     6.197   -44.439    12.472    20.786   169.836
 ROT.       3.718     3.718   -32.462    12.472    12.472   121.350
 VIB.     516.151   516.151   498.421    93.000    93.000    59.469
 TOTAL    523.588   526.067   421.519   117.943   126.257   350.655
 VIB. THERMAL CORRECTION E(T)-E(0) = H(T)-H(0) =     11110.716 J/MOL

              E         H         G         CV        CP        S
         KCAL/MOL  KCAL/MOL  KCAL/MOL CAL/MOL-K CAL/MOL-K CAL/MOL-K
 ELEC.      0.000     0.000     0.000     0.000     0.000     0.000
 TRANS.     0.889     1.481   -10.621     2.981     4.968    40.592
 ROT.       0.889     0.889    -7.759     2.981     2.981    29.003
 VIB.     123.363   123.363   119.125    22.227    22.227    14.213
 TOTAL    125.141   125.733   100.746    28.189    30.176    83.809
 VIB. THERMAL CORRECTION E(T)-E(0) = H(T)-H(0) =      2655.525 CAL/MOL
 ......END OF NORMAL COORDINATE ANALYSIS......
 STEP CPU TIME =     0.01 TOTAL CPU TIME =         69.6 (      1.2 MIN)
 TOTAL WALL CLOCK TIME=         69.7 SECONDS, CPU UTILIZATION IS    99.81%
               580000  WORDS OF DYNAMIC MEMORY USED
 EXECUTION OF GAMESS TERMINATED NORMALLY Sun Nov 14 21:55:13 2021
 DDI: 263640 bytes (0.3 MB / 0 MWords) used by master data server.

 ----------------------------------------
 CPU timing information for all processes
 ========================================
 0: 68.940 + 0.677 = 69.618
 ----------------------------------------
 ddikick.x: exited gracefully.
----- accounting info -----
Files used on the master node chemcompute-node-0.novalocal were:
-rw-r--r--. 1 chemcomp chemcomp     1519 Nov 14 21:54 /scratch/306538/342549.F05
-rw-rw-r--. 1 chemcomp chemcomp 18001600 Nov 14 21:54 /scratch/306538/342549.F08
-rw-rw-r--. 1 chemcomp chemcomp 70451200 Nov 14 21:55 /scratch/306538/342549.F10
-rw-rw-r--. 1 chemcomp chemcomp   878880 Nov 14 21:55 /scratch/306538/342549.F18
Sun Nov 14 21:55:17 UTC 2021
0.121u 0.072s 1:13.34 0.2%	0+0k 8+216io 0pf+0w
Finishing Up...
Looking for IR data...
Looking for Raman data...
vibramans not found
Looking for thermodynamics data...
Looking for UV-Vis data...
306538
