----- GAMESS execution script 'rungms' -----
This job is running on host chemcompute-node-0.novalocal
under operating system Linux at Sun Nov 14 21:44:33 UTC 2021
SLURM has assigned the following compute nodes to this run:
chemcompute-node-0
Available scratch disk space (Kbyte units) at beginning of the job is
Filesystem     1K-blocks     Used Available Use% Mounted on
/dev/sda1       62903276 16910688  45992588  27% /
GAMESS temporary binary files will be written to /scratch/306530
GAMESS supplementary output files will be written to /data/slurm/342541
Copying input file 342541.inp to your run's scratch directory...
The generated host list is
chemcompute-node-0.novalocal

 Distributed Data Interface kickoff program.
 Initiating 1 compute processes on 1 nodes to run the following command:
 /data/gamess-2019R1-ddi/gamess.00.x 342541 

          ******************************************************
          *         GAMESS VERSION = 30 JUN 2019 (R1)          *
          *             FROM IOWA STATE UNIVERSITY             *
          * M.W.SCHMIDT, K.K.BALDRIDGE, J.A.BOATZ, S.T.ELBERT, *
          *   M.S.GORDON, J.H.JENSEN, S.KOSEKI, N.MATSUNAGA,   *
          *          K.A.NGUYEN, S.J.SU, T.L.WINDUS,           *
          *       TOGETHER WITH M.DUPUIS, J.A.MONTGOMERY       *
          *         J.COMPUT.CHEM.  14, 1347-1363(1993)        *
          **************** 64 BIT LINUX VERSION ****************

  SINCE 1993, STUDENTS AND POSTDOCS WORKING AT IOWA STATE UNIVERSITY
  AND ALSO IN THEIR VARIOUS JOBS AFTER LEAVING ISU HAVE MADE IMPORTANT
  CONTRIBUTIONS TO THE CODE:
     IVANA ADAMOVIC, CHRISTINE AIKENS, YURI ALEXEEV, POOJA ARORA,
     ANDREY ASADCHEV, ROB BELL, PRADIPTA BANDYOPADHYAY, JONATHAN BENTZ,
     COLLEEN BERTONI, BRETT BODE, KURT BRORSEN, CALEB CARLIN, GALINA CHABAN,
     WEI CHEN, CHEOL HO CHOI, PAUL DAY, ALBERT DEFUSCO, NUWAN DESILVA,
     TIM DUDLEY, DMITRI FEDOROV, ALEX FINDLATER, GRAHAM FLETCHER, 
     MARK FREITAG, KURT GLAESEMANN, ANASTASIA GUNINA,
     DAN KEMP, GRANT MERRILL, NORIYUKI MINEZAWA, JONATHAN MULLIN,
     TAKESHI NAGATA, SEAN NEDD, HEATHER NETZLOFF, BOSILJKA NJEGIC, RYAN OLSON,
     MIKE PAK, BUU PHAM,
     SPENCER PRUITT, LUKE ROSKOP, JIM SHOEMAKER, LYUDMILA SLIPCHENKO,
     TONY SMITH, SAROM SOK LEANG, JIE SONG, TETSUYA TAKETSUGU, SIMON WEBB,
     PENG XU, SOOHAENG YOO, FEDERICO ZAHARIEV

  ADDITIONAL CODE HAS BEEN PROVIDED BY COLLABORATORS IN OTHER GROUPS:
     IOWA STATE UNIVERSITY:
          JOE IVANIC, AARON WEST, LAIMUTIS BYTAUTAS, KLAUS RUEDENBERG
     UNIVERSITY OF TOKYO: KIMIHIKO HIRAO, TAKAHITO NAKAJIMA,
          TAKAO TSUNEDA, MUNEAKI KAMIYA, SUSUMU YANAGISAWA,
          KIYOSHI YAGI, MAHITO CHIBA, SEIKEN TOKURA, NAOAKI KAWAKAMI
     UNIVERSITY OF AARHUS: FRANK JENSEN
     UNIVERSITY OF IOWA: VISVALDAS KAIRYS, HUI LI
     NATIONAL INST. OF STANDARDS AND TECHNOLOGY: WALT STEVENS, DAVID GARMER
     UNIVERSITY OF PISA: BENEDETTA MENNUCCI, JACOPO TOMASI
     UNIVERSITY OF MEMPHIS: HENRY KURTZ, PRAKASHAN KORAMBATH
     UNIVERSITY OF ALBERTA: TOBY ZENG, MARIUSZ KLOBUKOWSKI
     UNIVERSITY OF NEW ENGLAND: MARK SPACKMAN
     MIE UNIVERSITY: HIROAKI UMEDA
     NAT. INST. OF ADVANCED INDUSTRIAL SCIENCE AND TECHNOLOGY: KAZUO KITAURA
     MICHIGAN STATE UNIVERSITY:
          KAROL KOWALSKI, MARTA WLOCH, JEFFREY GOUR, JESSE LUTZ,
          WEI LI, JUN SHEN, J. EMILIANO DEUSTUA, PIOTR PIECUCH
     UNIVERSITY OF MINNESOTA:
          YINAN SHU
     UNIVERSITY OF SILESIA: MONIKA MUSIAL, STANISLAW KUCHARSKI
     FACULTES UNIVERSITAIRES NOTRE-DAME DE LA PAIX:
          OLIVIER QUINET, BENOIT CHAMPAGNE
     UNIVERSITY OF CALIFORNIA - SANTA BARBARA: BERNARD KIRTMAN
     INSTITUTE FOR MOLECULAR SCIENCE:
          KAZUYA ISHIMURA, MICHIO KATOUDA, AND SHIGERU NAGASE
     UNIVERSITY OF NOTRE DAME: ANNA POMOGAEVA, DAN CHIPMAN
     KYUSHU UNIVERSITY:
          HARUYUKI NAKANO,
          FENG LONG GU, JACEK KORCHOWIEC, MARCIN MAKOWSKI, AND YURIKO AOKI,
          HIROTOSHI MORI AND EISAKU MIYOSHI
     PENNSYLVANIA STATE UNIVERSITY:
          TZVETELIN IORDANOV, CHET SWALINA, JONATHAN SKONE,
          SHARON HAMMES-SCHIFFER
     WASEDA UNIVERSITY:
          MASATO KOBAYASHI, TOMOKO AKAMA, TSUGUKI TOUMA,
          TAKESHI YOSHIKAWA, YASUHIRO IKABATA, JUNJI SEINO,
          YUYA NAKAJIMA, HIROMI NAKAI
     NANJING UNIVERSITY: SHUHUA LI
     UNIVERSITY OF NEBRASKA:
          PEIFENG SU, DEJUN SI, NANDUN THELLAMUREGE, YALI WANG, HUI LI
     UNIVERSITY OF ZURICH: ROBERTO PEVERATI, KIM BALDRIDGE
     N. COPERNICUS UNIVERSITY AND JACKSON STATE UNIVERSITY:
          MARIA BARYSZ
     UNIVERSITY OF COPENHAGEN: Jimmy Kromann, CASPER STEINMANN
     TOKYO INSTITUTE OF TECHNOLOGY: HIROYA NAKATA
     NAGOYA UNIVERSITY: YOSHIO NISHIMOTO, STEPHAN IRLE
     MOSCOW STATE UNIVERSITY: VLADIMIR MIRONOV
     A.N.NESMEYANOV INSTITUTE OF ORGANOELEMENT COMPOUNDS OF RUSSIAN ACADEMY OF SCIENCES:
          IGOR S. GERASIMOV

 EXECUTION OF GAMESS BEGUN Sun Nov 14 21:44:33 2021

            ECHO OF THE FIRST FEW INPUT CARDS -
 INPUT CARD>!File created by the GAMESS Input Deck Generator Plugin for Avogadro            
 INPUT CARD> $BASIS GBASIS=STO NGAUSS=3 $END                                                
 INPUT CARD> $CONTRL SCFTYP=RHF RUNTYP=OPTIMIZE NZVAR=1 mult=1  ICHARG=0 $END               
 INPUT CARD> $STATPT hssend=.t. OPTTOL=0.0005 NSTEP=50 $END                                 
 INPUT CARD> $STATPT HESS=calc ihrep=5 $END                                                 
 INPUT CARD> $FORCE nvib=2 $END                                                             
 INPUT CARD> $ZMAT DLC=.t. auto=.t. nonvdw(1)=1,6,3,4 $END                                  
 INPUT CARD> $ZMAT IFZMAT(1)=1,1,6,1,3,4 fvalue(1)=2.00,2.00 $END                           
 INPUT CARD>                                                                                
 INPUT CARD>                                                                                
 INPUT CARD> $DATA                                                                          
 INPUT CARD>Title                                                                           
 INPUT CARD>C1                                                                              
 INPUT CARD>C     6.0     3.51228     0.15379    -2.36549                                   
 INPUT CARD>C     6.0     2.62931    -0.71416    -1.80910                                   
 INPUT CARD>C     6.0     1.59698    -0.21728    -0.83319                                   
 INPUT CARD>C     6.0     2.60840     0.81456     0.54727                                   
 INPUT CARD>C     6.0     4.04450     0.51867     0.21597                                   
 INPUT CARD>C     6.0     4.52692     1.09559    -0.91843                                   
 INPUT CARD>C     6.0     4.19694     2.53218    -1.07878                                   
 INPUT CARD>C     6.0     3.11741     3.09962    -0.52138                                   
 INPUT CARD>C     6.0     2.21093     2.26001     0.30357                                   
 INPUT CARD>O     8.0     1.16090     2.73856     0.72787                                   
 INPUT CARD>H     1.0     4.30521    -0.25460    -2.99707                                   
 INPUT CARD>H     1.0     3.10241     1.12749    -2.65564                                   
 INPUT CARD>H     1.0     2.84901    -1.77875    -1.80455                                   
 INPUT CARD>H     1.0     0.85434     0.46918    -1.24624                                   
 INPUT CARD>H     1.0     1.14678    -1.02810    -0.25390                                   
 INPUT CARD>H     1.0     2.26897     0.44071     1.51571                                   
 INPUT CARD>H     1.0     4.48930    -0.39262     0.60349                                   
 INPUT CARD>H     1.0     5.52332     0.80093    -1.26689                                   
 INPUT CARD>H     1.0     4.88318     3.12453    -1.67830                                   
 INPUT CARD>H     1.0     2.86173     4.14334    -0.64267                                   
 INPUT CARD> $END                                                                           
    1000000 WORDS OF MEMORY AVAILABLE

     BASIS OPTIONS
     -------------
     GBASIS=STO          IGAUSS=       3      POLAR=NONE    
     NDFUNC=       0     NFFUNC=       0     DIFFSP=       F
     NPFUNC=       0      DIFFS=       F     BASNAM=        


     RUN TITLE
     ---------
 Title                                                                           

 THE POINT GROUP OF THE MOLECULE IS C1      
 THE ORDER OF THE PRINCIPAL AXIS IS     0

 ATOM      ATOMIC                      COORDINATES (BOHR)
           CHARGE         X                   Y                   Z
 C           6.0     6.6372467922        0.2906209597       -4.4701279267
 C           6.0     4.9686754368       -1.3495667114       -3.4187032844
 C           6.0     3.0178546079       -0.4105996626       -1.5745007957
 C           6.0     4.9291612664        1.5392952006        1.0341903413
 C           6.0     7.6429967573        0.9801441781        0.4081241216
 C           6.0     8.5546383683        2.0703648949       -1.7355810389
 C           6.0     7.9310665869        4.7851263516       -2.0385986010
 C           6.0     5.8910506914        5.8574324661       -0.9852653355
 C           6.0     4.1780518780        4.2707996295        0.5736641181
 O           8.0     2.1937828991        5.1751280009        1.3754748547
 H           1.0     8.1356672196       -0.4811242365       -5.6636410660
 H           1.0     5.8627048016        2.1306471539       -5.0184319220
 H           1.0     5.3838482363       -3.3613501007       -3.4101050311
 H           1.0     1.6144685004        0.8866216389       -2.3550521149
 H           1.0     2.1670999682       -1.9428272880       -0.4798014283
 H           1.0     4.2877315744        0.8328211400        2.8642765768
 H           1.0     8.4835468767       -0.7419442173        1.1404307363
 H           1.0    10.4375613425        1.5135382353       -2.3940749566
 H           1.0     9.2278721487        5.9045055404       -3.1715271252
 H           1.0     5.4078855508        7.8297772740       -1.2144702005

          INTERNUCLEAR DISTANCES (ANGS.)
          ------------------------------

                1 C          2 C          3 C          4 C          5 C     

   1 C       0.0000000    1.3574031 *  2.4807278 *  3.1205427    2.6608892 *
   2 C       1.3574031 *  0.0000000    1.5049901 *  2.8088969 *  2.7610761 *
   3 C       2.4807278 *  1.5049901 *  0.0000000    1.9983328 *  2.7627366 *
   4 C       3.1205427    2.8088969 *  1.9983328 *  0.0000000    1.5032278 *
   5 C       2.6608892 *  2.7610761 *  2.7627366 *  1.5032278 *  0.0000000  
   6 C       2.0026143 *  2.7693703 *  3.2117662    2.4306323 *  1.3610397 *
   7 C       2.7894661 *  3.6782543    3.7920491    2.8491606 *  2.3987159 *
   8 C       3.4977962    4.0547974    3.6620702    2.5734419 *  2.8398035 *
   9 C       3.6405433    3.6720707    2.7939441 *  1.5187817 *  2.5302011 *
  10 O       4.6667869    4.5292074    3.3710628    2.4144665 *  3.6749289  
  11 H       1.0928923 *  2.1050199 *  3.4667390    4.0724211    3.3150478  
  12 H       1.0955693 *  2.0813765 *  2.7195680 *  3.2558568    3.0829109  
  13 H       2.1187949 *  1.0870330 *  2.2247040 *  3.5091605    3.2847886  
  14 H       2.9011785 *  2.2062691 *  1.0924064 *  2.5323294 *  3.5096479  
  15 H       3.3839720    2.1714282 *  1.0934743 *  2.4846735 *  3.3181405  
  16 H       4.0855668    3.5380688    2.5301883 *  1.0921779 *  2.2017967 *
  17 H       3.1730071    3.0632566    3.2342400    2.2356719 *  1.0855728 *
  18 H       2.3811749 *  3.3113114    4.0793373    3.4333833    2.1131619 *
  19 H       3.3431861    4.4533784    4.7624590    3.9323971    3.3289862  
  20 H       4.3940680    5.0009883    4.5443258    3.5441374    3.9082528  

                6 C          7 C          8 C          9 C         10 O     

   1 C       2.0026143 *  2.7894661 *  3.4977962    3.6405433    4.6667869  
   2 C       2.7693703 *  3.6782543    4.0547974    3.6720707    4.5292074  
   3 C       3.2117662    3.7920491    3.6620702    2.7939441 *  3.3710628  
   4 C       2.4306323 *  2.8491606 *  2.5734419 *  1.5187817 *  2.4144665 *
   5 C       1.3610397 *  2.3987159 *  2.8398035 *  2.5302011 *  3.6749289  
   6 C       0.0000000    1.4826968 *  2.4820361 *  2.8658276 *  4.0914233  
   7 C       1.4826968 *  0.0000000    1.3409206 *  2.4349956 *  3.5389428  
   8 C       2.4820361 *  1.3409206 *  0.0000000    1.4856626 *  2.3492384 *
   9 C       2.8658276 *  2.4349956 *  1.4856626 *  0.0000000    1.2294729 *
  10 O       4.0914233    3.5389428    2.3492384 *  1.2294729 *  0.0000000  
  11 H       2.4885563 *  3.3849227    4.3348243    4.6479562    5.7202159  
  12 H       2.2468077 *  2.3785789 *  2.9059572 *  3.2915440    4.2205625  
  13 H       3.4441866    4.5746885    5.0514411    4.6003150    5.4469217  
  14 H       3.7400124    3.9315374    3.5448727    2.7293442 *  3.0234376  
  15 H       4.0468513    4.7601992    4.5818119    3.5006936    3.8925312  
  16 H       3.3841164    3.8500251    3.4553420    2.1868938 *  2.6699486 *
  17 H       2.1289492 *  3.3867332    3.9170339    3.5096108    4.5714336  
  18 H       1.0959297 *  2.1890399 *  3.4100094    3.9455274    5.1734114  
  19 H       2.1956596 *  1.0868432 *  2.1111675 *  3.4374589    4.4490443  
  20 H       3.4839175    2.1374785 *  1.0814042 *  2.2058655 *  2.5970386 *

               11 H         12 H         13 H         14 H         15 H     

   1 C       1.0928923 *  1.0955693 *  2.1187949 *  2.9011785 *  3.3839720  
   2 C       2.1050199 *  2.0813765 *  1.0870330 *  2.2062691 *  2.1714282 *
   3 C       3.4667390    2.7195680 *  2.2247040 *  1.0924064 *  1.0934743 *
   4 C       4.0724211    3.2558568    3.5091605    2.5323294 *  2.4846735 *
   5 C       3.3150478    3.0829109    3.2847886    3.5096479    3.3181405  
   6 C       2.4885563 *  2.2468077 *  3.4441866    3.7400124    4.0468513  
   7 C       3.3849227    2.3785789 *  4.5746885    3.9315374    4.7601992  
   8 C       4.3348243    2.9059572 *  5.0514411    3.5448727    4.5818119  
   9 C       4.6479562    3.2915440    4.6003150    2.7293442 *  3.5006936  
  10 O       5.7202159    4.2205625    5.4469217    3.0234376    3.8925312  
  11 H       0.0000000    1.8637261 *  2.4219116 *  3.9367203    4.2542877  
  12 H       1.8637261 *  0.0000000    3.0388808    2.7337884 *  3.7735145  
  13 H       2.4219116 *  3.0388808    0.0000000    3.0567315    2.4218955 *
  14 H       3.9367203    2.7337884 *  3.0567315    0.0000000    1.8199196 *
  15 H       4.2542877    3.7735145    2.4218955 *  1.8199196 *  0.0000000  
  16 H       4.9994912    4.3088803    4.0356630    3.1032816    2.5589515 *
  17 H       3.6079040    3.8543646    3.2265406    4.1685890    3.5087594  
  18 H       2.3646265 *  2.8099952 *  3.7544322    4.6807968    4.8503198  
  19 H       3.6731081    2.8485969 *  5.3099851    4.8444929    5.7648882  
  20 H       5.1931407    3.6339134    6.0350043    4.2300547    5.4622328  

               16 H         17 H         18 H         19 H         20 H     

   1 C       4.0855668    3.1730071    2.3811749 *  3.3431861    4.3940680  
   2 C       3.5380688    3.0632566    3.3113114    4.4533784    5.0009883  
   3 C       2.5301883 *  3.2342400    4.0793373    4.7624590    4.5443258  
   4 C       1.0921779 *  2.2356719 *  3.4333833    3.9323971    3.5441374  
   5 C       2.2017967 *  1.0855728 *  2.1131619 *  3.3289862    3.9082528  
   6 C       3.3841164    2.1289492 *  1.0959297 *  2.1956596 *  3.4839175  
   7 C       3.8500251    3.3867332    2.1890399 *  1.0868432 *  2.1374785 *
   8 C       3.4553420    3.9170339    3.4100094    2.1111675 *  1.0814042 *
   9 C       2.1868938 *  3.5096108    3.9455274    3.4374589    2.2058655 *
  10 O       2.6699486 *  4.5714336    5.1734114    4.4490443    2.5970386 *
  11 H       4.9994912    3.6079040    2.3646265 *  3.6731081    5.1931407  
  12 H       4.3088803    3.8543646    2.8099952 *  2.8485969 *  3.6339134  
  13 H       4.0356630    3.2265406    3.7544322    5.3099851    6.0350043  
  14 H       3.1032816    4.1685890    4.6807968    4.8444929    4.2300547  
  15 H       2.5589515 *  3.5087594    4.8503198    5.7648882    5.4622328  
  16 H       0.0000000    2.5409545 *  4.2969076    4.9232798    4.3265965  
  17 H       2.5409545 *  0.0000000    2.4478726 *  4.2109442    4.9776332  
  18 H       4.2969076    2.4478726 *  0.0000000    2.4450265 *  4.3180339  
  19 H       4.9232798    4.2109442    2.4450265 *  0.0000000    2.4893299 *
  20 H       4.3265965    4.9776332    4.3180339    2.4893299 *  0.0000000  

  * ... LESS THAN  3.000


     ATOMIC BASIS SET
     ----------------
 THE CONTRACTED PRIMITIVE FUNCTIONS HAVE BEEN UNNORMALIZED
 THE CONTRACTED BASIS FUNCTIONS ARE NOW NORMALIZED TO UNITY

  SHELL TYPE  PRIMITIVE        EXPONENT          CONTRACTION COEFFICIENT(S)

 C         

      1   S       1            71.6168373    0.154328967295
      1   S       2            13.0450963    0.535328142282
      1   S       3             3.5305122    0.444634542185

      2   L       4             2.9412494   -0.099967229187    0.155916274999
      2   L       5             0.6834831    0.399512826089    0.607683718598
      2   L       6             0.2222899    0.700115468880    0.391957393099

 C         

      3   S       7            71.6168373    0.154328967295
      3   S       8            13.0450963    0.535328142282
      3   S       9             3.5305122    0.444634542185

      4   L      10             2.9412494   -0.099967229187    0.155916274999
      4   L      11             0.6834831    0.399512826089    0.607683718598
      4   L      12             0.2222899    0.700115468880    0.391957393099

 C         

      5   S      13            71.6168373    0.154328967295
      5   S      14            13.0450963    0.535328142282
      5   S      15             3.5305122    0.444634542185

      6   L      16             2.9412494   -0.099967229187    0.155916274999
      6   L      17             0.6834831    0.399512826089    0.607683718598
      6   L      18             0.2222899    0.700115468880    0.391957393099

 C         

      7   S      19            71.6168373    0.154328967295
      7   S      20            13.0450963    0.535328142282
      7   S      21             3.5305122    0.444634542185

      8   L      22             2.9412494   -0.099967229187    0.155916274999
      8   L      23             0.6834831    0.399512826089    0.607683718598
      8   L      24             0.2222899    0.700115468880    0.391957393099

 C         

      9   S      25            71.6168373    0.154328967295
      9   S      26            13.0450963    0.535328142282
      9   S      27             3.5305122    0.444634542185

     10   L      28             2.9412494   -0.099967229187    0.155916274999
     10   L      29             0.6834831    0.399512826089    0.607683718598
     10   L      30             0.2222899    0.700115468880    0.391957393099

 C         

     11   S      31            71.6168373    0.154328967295
     11   S      32            13.0450963    0.535328142282
     11   S      33             3.5305122    0.444634542185

     12   L      34             2.9412494   -0.099967229187    0.155916274999
     12   L      35             0.6834831    0.399512826089    0.607683718598
     12   L      36             0.2222899    0.700115468880    0.391957393099

 C         

     13   S      37            71.6168373    0.154328967295
     13   S      38            13.0450963    0.535328142282
     13   S      39             3.5305122    0.444634542185

     14   L      40             2.9412494   -0.099967229187    0.155916274999
     14   L      41             0.6834831    0.399512826089    0.607683718598
     14   L      42             0.2222899    0.700115468880    0.391957393099

 C         

     15   S      43            71.6168373    0.154328967295
     15   S      44            13.0450963    0.535328142282
     15   S      45             3.5305122    0.444634542185

     16   L      46             2.9412494   -0.099967229187    0.155916274999
     16   L      47             0.6834831    0.399512826089    0.607683718598
     16   L      48             0.2222899    0.700115468880    0.391957393099

 C         

     17   S      49            71.6168373    0.154328967295
     17   S      50            13.0450963    0.535328142282
     17   S      51             3.5305122    0.444634542185

     18   L      52             2.9412494   -0.099967229187    0.155916274999
     18   L      53             0.6834831    0.399512826089    0.607683718598
     18   L      54             0.2222899    0.700115468880    0.391957393099

 O         

     19   S      55           130.7093214    0.154328967295
     19   S      56            23.8088661    0.535328142282
     19   S      57             6.4436083    0.444634542185

     20   L      58             5.0331513   -0.099967229187    0.155916274999
     20   L      59             1.1695961    0.399512826089    0.607683718598
     20   L      60             0.3803890    0.700115468880    0.391957393099

 H         

     21   S      61             3.4252509    0.154328967295
     21   S      62             0.6239137    0.535328142282
     21   S      63             0.1688554    0.444634542185

 H         

     22   S      64             3.4252509    0.154328967295
     22   S      65             0.6239137    0.535328142282
     22   S      66             0.1688554    0.444634542185

 H         

     23   S      67             3.4252509    0.154328967295
     23   S      68             0.6239137    0.535328142282
     23   S      69             0.1688554    0.444634542185

 H         

     24   S      70             3.4252509    0.154328967295
     24   S      71             0.6239137    0.535328142282
     24   S      72             0.1688554    0.444634542185

 H         

     25   S      73             3.4252509    0.154328967295
     25   S      74             0.6239137    0.535328142282
     25   S      75             0.1688554    0.444634542185

 H         

     26   S      76             3.4252509    0.154328967295
     26   S      77             0.6239137    0.535328142282
     26   S      78             0.1688554    0.444634542185

 H         

     27   S      79             3.4252509    0.154328967295
     27   S      80             0.6239137    0.535328142282
     27   S      81             0.1688554    0.444634542185

 H         

     28   S      82             3.4252509    0.154328967295
     28   S      83             0.6239137    0.535328142282
     28   S      84             0.1688554    0.444634542185

 H         

     29   S      85             3.4252509    0.154328967295
     29   S      86             0.6239137    0.535328142282
     29   S      87             0.1688554    0.444634542185

 H         

     30   S      88             3.4252509    0.154328967295
     30   S      89             0.6239137    0.535328142282
     30   S      90             0.1688554    0.444634542185

 TOTAL NUMBER OF BASIS SET SHELLS             =   30
 NUMBER OF CARTESIAN GAUSSIAN BASIS FUNCTIONS =   60
 NUMBER OF ELECTRONS                          =   72
 CHARGE OF MOLECULE                           =    0
 SPIN MULTIPLICITY                            =    1
 NUMBER OF OCCUPIED ORBITALS (ALPHA)          =   36
 NUMBER OF OCCUPIED ORBITALS (BETA )          =   36
 TOTAL NUMBER OF ATOMS                        =   20
 THE NUCLEAR REPULSION ENERGY IS      505.3431425512

     $CONTRL OPTIONS
     ---------------
 SCFTYP=RHF          RUNTYP=OPTIMIZE     EXETYP=RUN     
 MPLEVL=       0     CITYP =NONE         CCTYP =NONE         VBTYP =NONE    
 DFTTYP=NONE         TDDFT =NONE    
 MULT  =       1     ICHARG=       0     NZVAR =       1     COORD =UNIQUE  
 PP    =NONE         RELWFN=NONE         LOCAL =NONE         NUMGRD=       F
 ISPHER=      -1     NOSYM =       0     MAXIT =      30     UNITS =ANGS    
 PLTORB=       F     MOLPLT=       F     AIMPAC=       F     FRIEND=        
 NPRINT=       7     IREST =       0     GEOM  =INPUT   
 NORMF =       0     NORMP =       0     ITOL  =      20     ICUT  =       9
 INTTYP=BEST         GRDTYP=BEST         QMTTOL= 1.0E-06

     $SYSTEM OPTIONS
     ---------------
  REPLICATED MEMORY=     1000000 WORDS (ON EVERY NODE).
 DISTRIBUTED MEMDDI=           0 MILLION WORDS IN AGGREGATE,
 MEMDDI DISTRIBUTED OVER   1 PROCESSORS IS           0 WORDS/PROCESSOR.
 TOTAL MEMORY REQUESTED ON EACH PROCESSOR=     1000000 WORDS.
 TIMLIM=      525600.00 MINUTES, OR     365.0 DAYS.
 PARALL= F  BALTYP=  DLB     KDIAG=    0  COREFL= F
 MXSEQ2=     300 MXSEQ3=     150  mem10=         0

          ----------------
          PROPERTIES INPUT
          ----------------

     MOMENTS            FIELD           POTENTIAL          DENSITY
 IEMOM =       1   IEFLD =       0   IEPOT =       0   IEDEN =       0
 WHERE =COMASS     WHERE =NUCLEI     WHERE =NUCLEI     WHERE =NUCLEI  
 OUTPUT=BOTH       OUTPUT=BOTH       OUTPUT=BOTH       OUTPUT=BOTH    
 IEMINT=       0   IEFINT=       0                     IEDINT=       0
                                                       MORB  =       0
          EXTRAPOLATION IN EFFECT
          SOSCF IN EFFECT
 ORBITAL PRINTING OPTION: NPREO=     1    60     2     1

     -------------------------------
     INTEGRAL TRANSFORMATION OPTIONS
     -------------------------------
     NWORD  =            0
     CUTOFF = 1.0E-09     MPTRAN =       0
     DIRTRF =       F     AOINTS =DUP     

          ----------------------
          INTEGRAL INPUT OPTIONS
          ----------------------
 NOPK  =       1 NORDER=       0 SCHWRZ=       T


 -----------------------------------------------
  STATISTICS ON AUTOMATIC COORDINATE GENERATION 
 -----------------------------------------------
  NUMBER OF USER SPECIFIED BONDS                             2
  NUMBER OF BONDS                                           21
  NUMBER OF ANGLES                                          39
  NUMBER OF TORSIONS                                        62
  NUMBER OF EXTRA COORD.                                     0
  NUMBER OF EXTRA COORD. FOR CONSTRAINTS                     0
  NUMBER OF CONSTRAINED COORD.                               2

  TOTAL NUMBER OF PRIMITIVES                               122
 -----------------------------------------------

   --- ENCODED Z MATRIX ---
 COORD  TYPE   I   J   K   L   M   N
    1      1    1   6
    2      1    3   4
    3      1    1   2
    4      1    1  12
    5      1    1  11
    6      1    2  13
    7      1    2   3
    8      1    3  14
    9      1    3  15
   10      1    4   9
   11      1    4   5
   12      1    4  16
   13      1    5   6
   14      1    5  17
   15      1    6   7
   16      1    6  18
   17      1    7   8
   18      1    7  19
   19      1    8  20
   20      1    8   9
   21      1    9  10
   22      2    1   2  13
   23      2    1   6   7
   24      2    1   6   5
   25      2    1   6  18
   26      2    1   2   3
   27      2    2   1  12
   28      2    2   1  11
   29      2    2   3  15
   30      2    2   3   4
   31      2    2   1   6
   32      2    2   3  14
   33      2    3   2  13
   34      2    3   4  16
   35      2    3   4   5
   36      2    3   4   9
   37      2    4   5  17
   38      2    4   5   6
   39      2    4   9  10
   40      2    4   9   8
   41      2    4   3  15
   42      2    4   3  14
   43      2    5   6   7
   44      2    5   4  16
   45      2    5   4   9
   46      2    5   6  18
   47      2    6   5  17
   48      2    6   1  12
   49      2    6   1  11
   50      2    6   7  19
   51      2    6   7   8
   52      2    7   8  20
   53      2    7   8   9
   54      2    7   6  18
   55      2    8   9  10
   56      2    8   7  19
   57      2    9   4  16
   58      2    9   8  20
   59      2   11   1  12
   60      2   14   3  15
   61      3    1   6   5  17
   62      3    1   6   5   4
   63      3    1   2   3  15
   64      3    1   2   3   4
   65      3    1   2   3  14
   66      3    1   6   7   8
   67      3    1   6   7  19
   68      3    2   3   4   9
   69      3    2   1   6  18
   70      3    2   1   6   5
   71      3    2   1   6   7
   72      3    2   3   4  16
   73      3    2   3   4   5
   74      3    3   4   9  10
   75      3    3   4   9   8
   76      3    3   4   5  17
   77      3    3   4   5   6
   78      3    3   2   1  11
   79      3    3   2   1   6
   80      3    3   2   1  12
   81      3    4   3   2  13
   82      3    4   9   8  20
   83      3    4   9   8   7
   84      3    4   5   6  18
   85      3    4   5   6   7
   86      3    5   4   3  15
   87      3    5   4   3  14
   88      3    5   6   1  11
   89      3    5   6   7  19
   90      3    5   6   7   8
   91      3    5   6   1  12
   92      3    5   4   9   8
   93      3    5   4   9  10
   94      3    6   5   4  16
   95      3    6   5   4   9
   96      3    6   7   8   9
   97      3    6   7   8  20
   98      3    6   1   2  13
   99      3    7   8   9  10
  100      3    7   6   1  11
  101      3    7   6   1  12
  102      3    7   6   5  17
  103      3    8   7   6  18
  104      3    8   9   4  16
  105      3    9   4   5  17
  106      3    9   8   7  19
  107      3    9   4   3  15
  108      3    9   4   3  14
  109      3   10   9   8  20
  110      3   10   9   4  16
  111      3   11   1   2  13
  112      3   11   1   6  18
  113      3   12   1   6  18
  114      3   12   1   2  13
  115      3   13   2   3  15
  116      3   13   2   3  14
  117      3   14   3   4  16
  118      3   15   3   4  16
  119      3   16   4   5  17
  120      3   17   5   6  18
  121      3   18   6   7  19
  122      3   19   7   8  20

          INDEP./SYM. INTERNAL COORDINATES
          --------------------------------
 CRD  1=   1.0000 (  1)
 CRD  2=   1.0000 (  2)
 CRD  3=   0.1193 (  5) -0.1195 (  9) -0.2917 ( 10)  0.2907 ( 15)  0.2401 ( 17)
          -0.1597 ( 20)  0.1047 ( 22)  0.1120 ( 24) -0.1314 ( 25)  0.1394 ( 30)
          -0.1148 ( 31)  0.1385 ( 34) -0.1230 ( 35) -0.1558 ( 39) -0.1270 ( 41)
          -0.1532 ( 43)  0.1584 ( 45)  0.1443 ( 49)  0.1066 ( 50)  0.1798 ( 52)
           0.1496 ( 54)  0.1393 ( 55) -0.1430 ( 57) -0.1834 ( 58) -0.1103 ( 61)
          -0.1090 ( 62)  0.1883 ( 68)  0.1680 ( 71) -0.1119 ( 76) -0.1079 ( 77)
          -0.1046 ( 79)  0.1307 (100)  0.1342 (101)  0.1350 (107)  0.1165 (108)
 CRD  4=  -0.2030 (  3)  0.1183 (  6) -0.1571 (  7)  0.1601 ( 10)  0.1102 ( 15)
          -0.1841 ( 17) -0.2415 ( 20)  0.1516 ( 22) -0.3466 ( 26) -0.1031 ( 29)
           0.2536 ( 30)  0.2074 ( 31) -0.1035 ( 32)  0.1945 ( 33)  0.1233 ( 37)
          -0.2220 ( 38)  0.1488 ( 39) -0.1345 ( 42) -0.1184 ( 48)  0.1393 ( 51)
          -0.2104 ( 55) -0.1613 ( 56) -0.1048 ( 98) -0.1118 (101)
 CRD  5=   0.1984 (  3) -0.1864 (  7) -0.1152 (  8) -0.1334 ( 11)  0.1318 ( 13)
          -0.1190 ( 17)  0.1171 ( 25) -0.1198 ( 28)  0.1162 ( 29) -0.1093 ( 34)
          -0.1523 ( 41) -0.1008 ( 42)  0.1111 ( 47)  0.1295 ( 48)  0.1860 ( 49)
           0.1321 ( 63) -0.1802 ( 66) -0.1449 ( 67) -0.1557 ( 74) -0.1922 ( 75)
           0.1725 ( 78)  0.1310 ( 82)  0.1439 ( 83)  0.1097 ( 85) -0.1781 ( 89)
          -0.2134 ( 90) -0.2070 ( 92) -0.1705 ( 93)  0.1071 ( 97)  0.1105 ( 99)
           0.1750 (111)  0.1621 (115) -0.1039 (119) -0.1096 (120)
 CRD  6=  -0.3121 (  3) -0.1470 (  5) -0.3258 (  7) -0.1504 (  9) -0.2865 ( 10)
          -0.1063 ( 11) -0.1050 ( 12) -0.1440 ( 13) -0.2583 ( 15) -0.1132 ( 17)
          -0.2009 ( 39) -0.1606 ( 41)  0.1554 ( 42)  0.1541 ( 48) -0.1831 ( 49)
          -0.1392 ( 50)  0.1808 ( 55)  0.1077 ( 56) -0.1783 ( 64)  0.1740 ( 79)
          -0.1749 ( 81)  0.1791 ( 98)
 CRD  7=  -0.1078 (  3) -0.1208 ( 11)  0.1851 ( 17)  0.2031 ( 19)  0.4353 ( 20)
          -0.1428 ( 28) -0.1153 ( 29) -0.3767 ( 39)  0.1317 ( 41) -0.1112 ( 48)
           0.1145 ( 49) -0.1570 ( 50) -0.1813 ( 53)  0.3554 ( 55)  0.1205 ( 56)
           0.2627 ( 58)  0.1106 ( 64)  0.1025 ( 81) -0.1052 ( 98)
 CRD  8=  -0.1315 ( 10) -0.2445 ( 11)  0.3158 ( 13)  0.2317 ( 15) -0.1373 ( 17)
           0.1329 ( 18) -0.1906 ( 21) -0.1590 ( 22)  0.1452 ( 33) -0.3206 ( 37)
          -0.1120 ( 39)  0.1765 ( 40)  0.1107 ( 42)  0.3480 ( 47)  0.2755 ( 50)
          -0.1415 ( 51) -0.1339 ( 56) -0.1148 ( 68)  0.1156 ( 89)  0.1035 ( 90)
          -0.1339 (102)
 CRD  9=   0.1373 (  3)  0.1880 (  7)  0.1144 (  8) -0.3051 ( 10)  0.1228 ( 13)
          -0.2996 ( 15) -0.2400 ( 17) -0.2145 ( 19)  0.1209 ( 24) -0.1068 ( 32)
           0.1372 ( 34)  0.1250 ( 42)  0.1118 ( 48) -0.1456 ( 52)  0.1218 ( 53)
           0.1307 ( 55)  0.1459 ( 61)  0.1257 ( 62) -0.1195 ( 63) -0.1807 ( 76)
          -0.1509 ( 77) -0.1049 ( 80)  0.1233 ( 85)  0.1276 ( 93) -0.1502 ( 95)
           0.1435 (102) -0.1800 (105) -0.1347 (114)  0.1162 (116)
 CRD 10=  -0.1021 (  3) -0.1136 (  7)  0.3277 ( 17)  0.1243 ( 18) -0.1847 ( 20)
          -0.1309 ( 28) -0.2434 ( 50) -0.1248 ( 51)  0.3990 ( 52) -0.1692 ( 55)
           0.3682 ( 56) -0.4022 ( 58)  0.1078 ( 62)
 CRD 11=   0.1688 (  6)  0.4694 (  7)  0.1877 ( 11)  0.1026 ( 14)  0.1026 ( 17)
           0.1210 ( 19) -0.2332 ( 22) -0.1331 ( 26)  0.2176 ( 29)  0.3629 ( 33)
           0.1198 ( 37) -0.1620 ( 39) -0.1817 ( 41) -0.1682 ( 50)  0.1201 ( 52)
          -0.1274 ( 53)  0.1336 ( 63)  0.1360 ( 86)  0.1775 (107)
 CRD 12=   0.2457 (  3)  0.1198 (  4) -0.1130 (  7)  0.1776 ( 10)  0.2114 ( 11)
           0.1169 ( 12)  0.2884 ( 13)  0.2964 ( 14)  0.1007 ( 15)  0.1630 ( 17)
           0.1876 ( 19)  0.2197 ( 22)  0.1709 ( 28) -0.1176 ( 31) -0.1534 ( 32)
          -0.2391 ( 33) -0.1630 ( 38)  0.2008 ( 42)  0.1143 ( 47)  0.2088 ( 48)
          -0.1085 ( 49) -0.1532 ( 50) -0.1228 ( 53) -0.1004 ( 63) -0.1326 ( 64)
           0.1209 ( 79)  0.1381 ( 98)  0.1011 (116)
 CRD 13=   0.3929 (  3)  0.2046 (  6) -0.2565 ( 11) -0.1133 ( 12) -0.1511 ( 14)
          -0.1638 ( 15) -0.1156 ( 16) -0.1016 ( 18) -0.1164 ( 20) -0.1326 ( 21)
           0.2888 ( 22) -0.1513 ( 26)  0.1458 ( 28) -0.1516 ( 33) -0.1448 ( 37)
          -0.1624 ( 42)  0.1152 ( 47) -0.1565 ( 48) -0.1426 ( 49) -0.1785 ( 50)
           0.1170 ( 52) -0.1137 ( 53)  0.1161 ( 56) -0.1900 ( 78) -0.1016 ( 79)
          -0.1220 ( 88) -0.1310 (100) -0.1138 (111)  0.1226 (114)
 CRD 14=  -0.2746 ( 11) -0.1176 ( 12) -0.2896 ( 13)  0.1156 ( 15) -0.1590 ( 16)
          -0.1197 ( 17) -0.2076 ( 18)  0.2090 ( 19) -0.1355 ( 20) -0.2049 ( 21)
           0.1327 ( 24) -0.1323 ( 30) -0.1239 ( 31)  0.1267 ( 35)  0.1477 ( 40)
           0.1221 ( 42) -0.1516 ( 44) -0.1702 ( 46)  0.1441 ( 48)  0.1075 ( 49)
           0.1541 ( 51)  0.1318 ( 52) -0.2881 ( 53) -0.1192 ( 55) -0.1182 ( 56)
           0.1566 ( 58) -0.1011 ( 80)
 CRD 15=   0.1432 (  3)  0.1171 (  4) -0.1176 (  7)  0.1392 (  9) -0.1320 ( 10)
           0.1780 ( 11) -0.2045 ( 12) -0.2069 ( 13)  0.1458 ( 15)  0.1582 ( 16)
          -0.1071 ( 20)  0.1803 ( 27) -0.1999 ( 32) -0.1072 ( 39)  0.1439 ( 42)
          -0.1743 ( 48)  0.1114 ( 50)  0.1484 ( 54)  0.1444 ( 55) -0.1719 ( 56)
          -0.1593 ( 57)  0.1061 ( 64)  0.1873 ( 65) -0.1328 ( 69) -0.1036 ( 70)
          -0.1555 ( 72) -0.1397 ( 73)  0.1027 ( 76)  0.2129 ( 80)  0.1046 ( 81)
           0.1219 (101)  0.1233 (108)  0.2074 (114)  0.1858 (116)  0.1102 (119)
 CRD 16=  -0.1180 (  8)  0.3214 ( 12) -0.2822 ( 16)  0.1300 ( 18) -0.2339 ( 21)
           0.1502 ( 27)  0.1001 ( 29) -0.1566 ( 32)  0.2287 ( 37)  0.1706 ( 40)
          -0.1289 ( 41)  0.1013 ( 43)  0.1782 ( 44) -0.1562 ( 45) -0.1031 ( 46)
          -0.2617 ( 47) -0.1089 ( 48)  0.1396 ( 49) -0.1060 ( 51)  0.1261 ( 66)
           0.1057 ( 67) -0.1401 ( 68) -0.1048 ( 71) -0.1006 ( 72)  0.1461 ( 75)
           0.1435 ( 86)  0.1640 ( 87)  0.1428 ( 91)  0.1410 (104)  0.1138 (105)
 CRD 17=   0.1041 (  3)  0.1774 (  4) -0.1321 (  5)  0.3409 (  6)  0.1115 (  8)
          -0.1180 (  9) -0.1329 ( 13) -0.1660 ( 16)  0.3037 ( 18) -0.1643 ( 19)
           0.2253 ( 21) -0.1515 ( 26) -0.1156 ( 40) -0.1011 ( 41)  0.1063 ( 43)
          -0.1286 ( 46)  0.1173 ( 48)  0.1036 ( 50) -0.1458 ( 51)  0.1214 ( 53)
           0.1103 ( 65)  0.1145 ( 68) -0.1745 ( 69) -0.1728 ( 71)  0.1139 ( 72)
          -0.1286 ( 80) -0.1086 ( 83) -0.1151 ( 99)  0.1047 (106)
 CRD 18=   0.1390 (  9)  0.1379 ( 12)  0.1034 ( 15) -0.1209 ( 16)  0.1406 ( 18)
          -0.1403 ( 25)  0.1412 ( 28) -0.1182 ( 29)  0.2200 ( 41) -0.1559 ( 42)
           0.1496 ( 48) -0.2105 ( 49) -0.2025 ( 63) -0.1152 ( 65) -0.2194 ( 78)
          -0.1327 ( 80)  0.1118 ( 83)  0.1435 ( 84) -0.1232 ( 90) -0.1415 ( 92)
          -0.1168 ( 93) -0.1469 (103) -0.1603 (104) -0.1356 (110) -0.2083 (111)
          -0.1216 (114) -0.2167 (115) -0.1294 (116) -0.1086 (118)  0.1152 (119)
           0.1478 (120) -0.1222 (121)
 CRD 19=   0.1259 (  5) -0.1517 (  6) -0.3814 ( 12)  0.3438 ( 14) -0.4541 ( 16)
           0.1701 ( 18) -0.1433 ( 19)  0.1531 ( 21) -0.1545 ( 38)  0.1198 ( 66)
           0.1216 ( 70)  0.1266 ( 91) -0.1277 ( 96) -0.1153 ( 97) -0.1018 (106)
 CRD 20=  -0.1521 (  4)  0.3004 (  8) -0.1561 (  9)  0.2773 ( 12) -0.1773 ( 16)
          -0.1317 ( 25)  0.1155 ( 34) -0.1143 ( 36)  0.2324 ( 42) -0.1065 ( 44)
          -0.2022 ( 48)  0.2058 ( 65)  0.1183 ( 72) -0.1197 ( 75)  0.1776 ( 80)
           0.1164 ( 82)  0.1267 ( 83)  0.1208 ( 84) -0.1149 ( 90) -0.1439 ( 92)
          -0.1143 ( 93) -0.1752 (103) -0.2207 (104) -0.1912 (110)  0.1926 (114)
           0.1905 (116) -0.1483 (121)
 CRD 21=   0.3420 (  4) -0.2282 (  5)  0.2943 (  6)  0.1751 (  8) -0.1960 (  9)
           0.1317 ( 16)  0.1440 ( 27) -0.1050 ( 28)  0.1386 ( 32) -0.1126 ( 34)
           0.1327 ( 62) -0.1064 ( 69) -0.1257 ( 77)  0.1278 ( 83)  0.1839 ( 84)
           0.1192 ( 85)  0.1079 ( 91) -0.2170 ( 94) -0.1535 ( 95) -0.1748 ( 96)
          -0.1421 ( 97)  0.1348 ( 99)  0.1055 (100)  0.1303 (101) -0.1603 (106)
           0.1040 (109) -0.1499 (119)  0.1146 (120) -0.1277 (122)
 CRD 22=   0.2156 (  4)  0.2928 (  6)  0.1525 (  8)  0.2678 ( 14) -0.1191 ( 16)
          -0.1433 ( 28) -0.1474 ( 29)  0.2151 ( 41)  0.1998 ( 49) -0.1240 ( 62)
          -0.2647 ( 63) -0.1056 ( 64) -0.1593 ( 65)  0.1240 ( 77)  0.2308 ( 78)
           0.1822 ( 80) -0.1045 ( 85)  0.1425 ( 94)  0.1268 ( 95)  0.1508 (111)
           0.1170 (112)  0.1061 (113)  0.1021 (114) -0.1889 (115)  0.1027 (119)
 CRD 23=   0.4927 (  4)  0.7048 (  5) -0.1493 ( 14) -0.1536 ( 27)  0.2149 ( 59)
           0.1092 ( 80) -0.1830 ( 91) -0.1813 (101) -0.1910 (113)
 CRD 24=  -0.2946 (  4)  0.1332 (  5)  0.4016 (  8) -0.2230 (  9) -0.1232 ( 10)
           0.1331 ( 11)  0.1512 ( 18) -0.2347 ( 21)  0.1043 ( 28) -0.1665 ( 29)
           0.1100 ( 32)  0.1179 ( 63) -0.2275 ( 86) -0.1755 ( 87) -0.1495 ( 88)
          -0.1157 ( 91) -0.1434 (100) -0.1097 (101) -0.2238 (107) -0.1718 (108)
          -0.1572 (112) -0.1234 (113)  0.1121 (115) -0.1832 (117) -0.2353 (118)
 CRD 25=   0.5350 (  8)  0.6987 (  9) -0.1000 ( 32)  0.2317 ( 60) -0.1310 ( 65)
           0.1499 ( 87)  0.1452 (108) -0.1207 (116)  0.1497 (117)
 CRD 26=  -0.2985 (  4)  0.2320 (  6) -0.1007 (  8) -0.3361 ( 14)  0.1586 ( 18)
           0.1173 ( 21)  0.1233 ( 41)  0.1356 ( 49) -0.1134 ( 59) -0.2542 ( 63)
          -0.1325 ( 64) -0.1498 ( 65)  0.2963 ( 78)  0.1320 ( 79)  0.1663 ( 80)
           0.1035 ( 86) -0.1758 ( 88) -0.1837 (100)  0.1088 (107)  0.2099 (111)
          -0.1989 (112) -0.1673 (115)  0.1099 (118)
 CRD 27=  -0.2021 ( 12) -0.1819 ( 25) -0.1124 ( 34) -0.1188 ( 66) -0.2556 ( 82)
          -0.1479 ( 83)  0.2264 ( 84)  0.1316 ( 85) -0.1332 ( 89) -0.1775 ( 90)
           0.1075 ( 92) -0.1789 ( 94) -0.1099 ( 95)  0.1888 ( 96)  0.3031 ( 97)
          -0.1176 ( 99) -0.2847 (103)  0.1768 (104)  0.1429 (106) -0.2254 (109)
           0.1441 (110) -0.1382 (119)  0.1910 (120) -0.2404 (121)  0.2571 (122)
 CRD 28=   0.1775 ( 10)  0.3329 ( 12) -0.1924 ( 16) -0.1015 ( 17) -0.4012 ( 18)
          -0.2978 ( 19)  0.2599 ( 21) -0.1324 ( 34) -0.2641 ( 39)  0.1044 ( 47)
           0.2877 ( 52)  0.2565 ( 55) -0.2783 ( 58) -0.1063 ( 94)  0.1002 (104)
 CRD 29=  -0.1689 ( 10)  0.1200 ( 11) -0.1517 ( 14) -0.2004 ( 15) -0.3866 ( 16)
           0.5869 ( 19)  0.1049 ( 20)  0.2619 ( 21)  0.2657 ( 50)  0.1071 ( 52)
          -0.2500 ( 56) -0.1364 ( 58)
 CRD 30=   0.2406 ( 12)  0.1400 ( 14) -0.1183 ( 42) -0.1143 ( 48)  0.1244 ( 61)
          -0.1919 ( 65) -0.2330 ( 67)  0.2263 ( 74) -0.1214 ( 76)  0.1964 ( 80)
           0.2189 ( 82) -0.2412 ( 89)  0.2556 ( 93) -0.2302 ( 97) -0.2466 ( 99)
           0.1687 (102) -0.1672 (105)  0.2383 (106)  0.1562 (110)  0.2053 (114)
          -0.1941 (116) -0.1351 (121)
 CRD 31=   0.1036 (  4) -0.1545 (  5)  0.1152 (  7)  0.1007 (  9)  0.1001 ( 10)
           0.2291 ( 11)  0.2795 ( 12) -0.2259 ( 13) -0.2840 ( 16)  0.2412 ( 17)
           0.2584 ( 18) -0.2635 ( 20) -0.2752 ( 21)  0.1315 ( 22) -0.1224 ( 33)
          -0.2074 ( 37)  0.2206 ( 47) -0.1656 ( 52)  0.1679 ( 58) -0.1095 (102)
           0.1115 (107)
 CRD 32=  -0.2436 (  4)  0.1886 (  5)  0.4814 (  6) -0.2350 (  8)  0.1879 (  9)
          -0.1514 ( 10)  0.3683 ( 14) -0.1556 ( 15)  0.1116 ( 17) -0.1844 ( 18)
           0.1641 ( 19) -0.2181 ( 21) -0.1023 ( 37)  0.1069 ( 54) -0.1351 (113)
           0.1267 (117)
 CRD 33=  -0.3072 (  3) -0.1938 (  5)  0.3155 (  7)  0.1236 (  9) -0.1351 ( 10)
           0.1019 ( 15) -0.1428 ( 17) -0.1628 ( 18)  0.1945 ( 20)  0.1124 ( 21)
           0.3387 ( 22) -0.1047 ( 28)  0.1186 ( 29) -0.3546 ( 33) -0.1016 ( 55)
           0.1675 ( 59) -0.1369 ( 60) -0.1012 ( 87) -0.1292 ( 91) -0.1586 (101)
          -0.1311 (108) -0.1852 (113)  0.1277 (116) -0.1384 (117)
 CRD 34=   0.1413 (  3) -0.1251 (  7) -0.2265 ( 10)  0.1385 ( 11) -0.1124 ( 13)
           0.2553 ( 15) -0.1073 ( 16) -0.2288 ( 18) -0.1123 ( 19)  0.1378 ( 20)
           0.1945 ( 21)  0.1023 ( 33) -0.2092 ( 37)  0.1974 ( 39)  0.1233 ( 44)
          -0.1300 ( 46)  0.2070 ( 47) -0.2149 ( 50) -0.1816 ( 52)  0.1299 ( 54)
          -0.2784 ( 55)  0.2807 ( 56) -0.1390 ( 57)  0.2047 ( 58) -0.1000 ( 69)
          -0.1119 (112)
 CRD 35=   0.1915 ( 10)  0.1715 ( 11) -0.2850 ( 12)  0.2025 ( 13) -0.2674 ( 14)
           0.1367 ( 15) -0.2776 ( 16)  0.2342 ( 17) -0.3428 ( 18) -0.2561 ( 19)
           0.2345 ( 20) -0.4117 ( 21)  0.1316 ( 82) -0.1270 ( 97)
 CRD 36=   0.1222 (  3)  0.1421 (  4) -0.4488 (  6)  0.1024 (  8)  0.3299 ( 14)
          -0.1244 ( 15) -0.1484 ( 18)  0.1087 ( 19) -0.1838 ( 21) -0.1415 ( 26)
          -0.1015 ( 40)  0.1068 ( 53) -0.1566 ( 69)  0.1621 ( 72)  0.1276 ( 86)
          -0.1422 ( 88) -0.1359 (100)  0.1193 (107)  0.1117 (111) -0.2074 (112)
          -0.1250 (113)  0.1210 (117)  0.1988 (118)
 CRD 37=  -0.1024 (  5)  0.1760 (  8) -0.1623 (  9)  0.1507 ( 14)  0.1116 ( 18)
          -0.1304 ( 20) -0.1135 ( 25) -0.1148 ( 32) -0.1572 ( 34)  0.1446 ( 41)
           0.1036 ( 44) -0.1329 ( 63)  0.2247 ( 81)  0.1962 ( 82)  0.1361 ( 87)
          -0.2037 ( 97) -0.2372 ( 98)  0.1128 (109)  0.1783 (110) -0.1406 (111)
          -0.2832 (114)  0.2437 (116)  0.1052 (117) -0.1601 (121)
 CRD 38=   0.1299 (  3) -0.1579 (  7) -0.1067 ( 17) -0.1147 ( 21) -0.1711 ( 25)
          -0.1280 ( 28)  0.1244 ( 29)  0.1406 ( 34) -0.1182 ( 41) -0.1447 ( 42)
          -0.1087 ( 44)  0.1481 ( 48)  0.1409 ( 49)  0.1350 ( 63) -0.1209 ( 65)
           0.1038 ( 74)  0.1567 ( 78) -0.1276 ( 80)  0.2301 ( 84)  0.1451 ( 89)
           0.1707 ( 93)  0.2015 ( 94) -0.1342 ( 99) -0.2080 (103) -0.1932 (104)
          -0.1509 (106) -0.1473 (109)  0.1118 (111) -0.1724 (114)  0.1841 (115)
           0.2230 (119)  0.2161 (120) -0.1157 (121) -0.1365 (122)
 CRD 39=  -0.1096 (  7)  0.1002 (  8) -0.2557 ( 11)  0.2721 ( 13) -0.1692 ( 15)
           0.4415 ( 17) -0.1915 ( 18) -0.3736 ( 20)  0.1754 ( 21)  0.1228 ( 37)
           0.1016 ( 40) -0.1310 ( 47)  0.1086 ( 50) -0.2297 ( 52)  0.2404 ( 58)
          -0.1059 ( 69) -0.1072 ( 72) -0.1161 (113) -0.1228 (117)  0.1283 (119)
           0.1004 (120)
 CRD 40=  -0.1207 ( 10) -0.1622 ( 13)  0.2168 ( 14) -0.1652 ( 15)  0.2640 ( 17)
           0.1190 ( 18) -0.4008 ( 19)  0.2811 ( 20)  0.1272 ( 38)  0.1310 ( 40)
           0.1465 ( 50)  0.1605 ( 51)  0.2059 ( 52) -0.3127 ( 53) -0.2144 ( 55)
          -0.3069 ( 56)  0.1064 ( 58)
 CRD 41=   0.1738 (  4) -0.2296 (  8)  0.1350 (  9) -0.3123 ( 10)  0.1636 ( 12)
           0.1811 ( 15)  0.1311 ( 17) -0.1188 ( 18)  0.1366 ( 21) -0.1755 ( 29)
           0.1618 ( 37) -0.1696 ( 44)  0.1613 ( 46) -0.1515 ( 47) -0.1017 ( 54)
          -0.1062 ( 55)  0.1237 ( 57)  0.1251 ( 58)  0.1323 ( 69)  0.1882 ( 72)
           0.1388 ( 78) -0.2134 ( 86) -0.1543 ( 88)  0.1354 ( 93) -0.1022 ( 94)
          -0.1213 ( 99) -0.1163 (100) -0.1216 (107)  0.1105 (111)  0.1023 (117)
          -0.1103 (122)
 CRD 42=   0.1363 (  5) -0.1156 (  6)  0.1305 (  9) -0.1097 ( 10) -0.2054 ( 15)
           0.1037 ( 16) -0.1320 ( 19)  0.1805 ( 20) -0.1278 ( 23) -0.1371 ( 26)
           0.1062 ( 27) -0.1141 ( 36) -0.1229 ( 38)  0.1118 ( 39)  0.1058 ( 45)
          -0.1042 ( 53) -0.1198 ( 56) -0.1296 ( 60) -0.1635 ( 61)  0.1324 ( 65)
           0.1285 ( 76) -0.1078 ( 80)  0.1578 ( 82) -0.1245 ( 87) -0.1482 ( 89)
           0.1113 ( 91) -0.1828 ( 97) -0.2229 (102) -0.1012 (103)  0.1479 (104)
           0.1929 (105)  0.1343 (106)  0.1477 (109)  0.1541 (110) -0.1287 (115)
          -0.1225 (117)  0.1162 (119) -0.1477 (120) -0.1906 (121)
 CRD 43=  -0.2859 (  3)  0.1781 (  5) -0.1328 (  7)  0.1691 (  8) -0.1577 ( 11)
           0.1232 ( 12) -0.1344 ( 13)  0.1352 ( 15)  0.1110 ( 16) -0.1593 ( 18)
          -0.1268 ( 21)  0.1384 ( 27)  0.1039 ( 28)  0.1161 ( 29) -0.1097 ( 40)
           0.1003 ( 50) -0.1557 ( 51)  0.1003 ( 53) -0.1700 ( 54) -0.2285 ( 59)
          -0.1798 ( 60) -0.1006 ( 63)  0.1342 ( 81) -0.1017 ( 88)  0.1382 ( 91)
          -0.1849 (100)  0.1271 (102)  0.1926 (107)  0.1372 (110)  0.2083 (113)
          -0.1527 (114)  0.1449 (116) -0.1194 (117)
 CRD 44=  -0.1995 (  3)  0.1579 (  5)  0.2731 (  7) -0.1989 (  9)  0.1587 ( 11)
          -0.1472 ( 12)  0.1223 ( 17) -0.1452 ( 20)  0.1460 ( 22)  0.1401 ( 27)
          -0.1484 ( 32) -0.1476 ( 33) -0.1071 ( 39)  0.1034 ( 40)  0.1142 ( 57)
           0.1486 ( 60) -0.1458 ( 68) -0.1032 ( 71)  0.1449 ( 74)  0.1002 ( 85)
           0.1752 ( 87) -0.1559 ( 90)  0.1173 ( 91) -0.1413 ( 92)  0.1052 ( 98)
          -0.1490 ( 99) -0.1037 (104)  0.1410 (105) -0.1429 (106) -0.1263 (107)
          -0.1521 (109)  0.1252 (110) -0.1254 (116)  0.1442 (117)  0.1201 (121)
          -0.1400 (122)
 CRD 45=  -0.2485 (  3)  0.1791 (  4)  0.1798 ( 11) -0.1359 ( 12) -0.1020 ( 13)
          -0.1255 ( 20)  0.1110 ( 21)  0.1232 ( 28)  0.1326 ( 34) -0.1132 ( 39)
          -0.1061 ( 41) -0.1381 ( 45) -0.2373 ( 59)  0.1051 ( 63) -0.1352 ( 67)
          -0.1136 ( 68)  0.1970 ( 75) -0.1013 ( 77)  0.1156 ( 78) -0.1292 ( 83)
          -0.1798 ( 88)  0.1225 ( 92) -0.1280 ( 93) -0.1003 ( 97)  0.1162 ( 99)
          -0.1425 (100)  0.1024 (101) -0.1227 (102)  0.1701 (106) -0.1397 (108)
           0.2092 (109) -0.2610 (110)  0.1051 (111) -0.1194 (112)  0.1254 (113)
           0.1177 (115) -0.1848 (121)
 CRD 46=  -0.1305 (  6)  0.2323 (  7) -0.1993 (  8) -0.1189 ( 13) -0.1015 ( 14)
           0.1975 ( 16)  0.1204 ( 17)  0.1198 ( 22) -0.1279 ( 26) -0.1142 ( 28)
          -0.1743 ( 29)  0.1021 ( 42)  0.1820 ( 43)  0.1438 ( 47)  0.1392 ( 50)
          -0.1063 ( 51)  0.1349 ( 60) -0.1668 ( 62) -0.1116 ( 64)  0.1121 ( 66)
           0.1198 ( 68) -0.1585 ( 71) -0.1247 ( 74)  0.1316 ( 77)  0.1016 ( 78)
          -0.1409 ( 86)  0.1331 ( 88)  0.1352 ( 91)  0.1200 ( 94)  0.1009 ( 99)
           0.1434 (102) -0.1767 (105) -0.1114 (107) -0.1010 (110)  0.1109 (115)
          -0.1753 (118)  0.1872 (120) -0.1260 (121)  0.1156 (122)
 CRD 47=   0.1506 (  3) -0.1048 (  4) -0.1297 (  9) -0.3147 ( 13)  0.2191 ( 15)
          -0.1535 ( 18) -0.1589 ( 23)  0.1612 ( 24) -0.1177 ( 31) -0.1007 ( 32)
           0.1917 ( 46) -0.1501 ( 51) -0.2282 ( 54)  0.1697 ( 59)  0.1316 ( 66)
           0.1651 ( 69) -0.1374 ( 71) -0.1052 ( 78) -0.1330 ( 91) -0.2046 (101)
           0.1348 (109)  0.2919 (112) -0.1132 (115) -0.1261 (116) -0.1530 (121)
 CRD 48=   0.2020 (  4) -0.1496 (  5) -0.1445 (  8)  0.2677 ( 10) -0.2390 ( 11)
           0.1050 ( 14) -0.1158 ( 22) -0.1227 ( 27)  0.1375 ( 28)  0.1373 ( 35)
          -0.1694 ( 36) -0.1037 ( 40)  0.1832 ( 44) -0.1841 ( 57)  0.1257 ( 60)
           0.1327 ( 63)  0.1139 ( 69)  0.1132 ( 70) -0.1922 ( 72) -0.1505 ( 77)
          -0.1252 ( 79)  0.1295 ( 87) -0.1247 (100)  0.1169 (108)  0.1023 (110)
           0.1352 (111) -0.1591 (117) -0.3149 (118)  0.1649 (119)
 CRD 49=   0.1563 (  3) -0.1949 (  7)  0.2473 (  9)  0.1100 ( 10)  0.1351 ( 11)
          -0.2299 ( 12) -0.1641 ( 13) -0.1019 ( 20)  0.1050 ( 30)  0.1502 ( 32)
           0.1196 ( 33) -0.1178 ( 37) -0.1119 ( 39)  0.1032 ( 40)  0.1019 ( 44)
          -0.1423 ( 45) -0.1847 ( 60) -0.1122 ( 64)  0.1403 ( 65)  0.1032 ( 72)
           0.2162 ( 73)  0.1979 ( 74) -0.1594 ( 76) -0.1297 ( 81)  0.1600 ( 86)
          -0.1536 ( 92)  0.1081 ( 95) -0.2793 (108)  0.1228 (116) -0.1694 (117)
 CRD 50=  -0.1391 (  4)  0.1848 (  5)  0.1104 (  7)  0.1273 ( 10) -0.1851 ( 11)
           0.1327 ( 14)  0.1803 ( 15) -0.2185 ( 16)  0.1204 ( 22) -0.1542 ( 26)
           0.1244 ( 27) -0.1376 ( 28)  0.2031 ( 38) -0.1538 ( 43)  0.1311 ( 44)
           0.1843 ( 46) -0.1507 ( 47)  0.1105 ( 48)  0.2011 ( 61)  0.1026 ( 62)
          -0.2724 ( 70)  0.1200 ( 73)  0.1259 ( 79) -0.1037 ( 80) -0.1157 ( 81)
          -0.1075 ( 88)  0.1236 ( 89)  0.1180 ( 90)  0.2135 ( 98)  0.1284 (100)
           0.1502 (101)  0.1066 (113) -0.1097 (118)  0.1130 (120)
 CRD 51=   0.1845 ( 23) -0.1789 ( 24)  0.1863 ( 31)  0.1139 ( 40)  0.1110 ( 50)
          -0.2448 ( 66)  0.1429 ( 70)  0.1006 ( 71) -0.1733 ( 74) -0.2692 ( 83)
          -0.1622 ( 90)  0.1712 ( 92)  0.2568 ( 96)  0.1385 (102)  0.2501 (109)
          -0.1170 (110)  0.1116 (111)  0.1659 (121) -0.3478 (122)
 CRD 52=  -0.2166 ( 15) -0.1068 ( 22) -0.1755 ( 23)  0.1020 ( 30) -0.1166 ( 31)
          -0.1379 ( 35) -0.1373 ( 36) -0.1036 ( 40)  0.1567 ( 45)  0.1102 ( 47)
          -0.1068 ( 50)  0.1999 ( 61)  0.1734 ( 67) -0.1402 ( 73)  0.1267 ( 75)
          -0.2409 ( 76) -0.1409 ( 83) -0.2170 ( 85)  0.1515 ( 89) -0.1320 ( 93)
           0.2294 ( 95)  0.2090 ( 96) -0.1710 (103)  0.1023 (104)  0.1414 (109)
          -0.2652 (119)  0.2295 (120) -0.2178 (122)
 CRD 53=  -0.1045 ( 24) -0.1054 ( 27)  0.1118 ( 31) -0.1150 ( 32)  0.1008 ( 36)
          -0.1465 ( 62)  0.1019 ( 63)  0.2250 ( 64)  0.2485 ( 65)  0.1042 ( 70)
           0.1498 ( 77) -0.2239 ( 79) -0.2893 ( 80) -0.1585 ( 81)  0.1446 ( 83)
           0.1492 ( 90) -0.1002 ( 92) -0.1708 ( 96)  0.1673 ( 98) -0.1031 (109)
           0.3516 (111)  0.1018 (114) -0.2816 (115) -0.1351 (116) -0.1074 (119)
           0.1425 (120) -0.1131 (121)  0.1551 (122)
 CRD 54=  -0.1708 ( 10)  0.1105 ( 22) -0.2876 ( 23)  0.1377 ( 25) -0.1108 ( 30)
           0.1795 ( 31)  0.1095 ( 32)  0.2259 ( 35) -0.3600 ( 36) -0.1470 ( 39)
           0.1036 ( 40)  0.1045 ( 41)  0.1826 ( 43) -0.1332 ( 48) -0.1071 ( 51)
           0.1089 ( 57)  0.2225 ( 61)  0.1175 ( 62) -0.1089 ( 67)  0.1201 ( 70)
           0.1027 ( 73) -0.1187 ( 75) -0.1719 ( 76) -0.1838 ( 85)  0.1445 ( 90)
           0.1882 ( 95) -0.1039 ( 96)  0.1114 (105) -0.1014 (109)  0.1244 (120)
          -0.1006 (121)  0.1148 (122)

 THE DETERMINANT OF THE G MATRIX IS 10**(   -20)


                     --------------------
                     INTERNAL COORDINATES
                     --------------------

                 - - ATOMS - -         COORDINATE      COORDINATE
 NO.   TYPE    I  J  K  L  M  N        (BOHR,RAD)       (ANG,DEG)
 ----------------------------------------------------------------
   1 STRETCH   1  6                     3.7843924       2.0026143
   2 STRETCH   3  4                     3.7763014       1.9983328
   3 STRETCH   1  2                     2.5651198       1.3574031
   4 STRETCH   1 12                     2.0703258       1.0955693
   5 STRETCH   1 11                     2.0652671       1.0928923
   6 STRETCH   2 13                     2.0541944       1.0870330
   7 STRETCH   2  3                     2.8440190       1.5049901
   8 STRETCH   3 14                     2.0643488       1.0924064
   9 STRETCH   3 15                     2.0663668       1.0934743
  10 STRETCH   4  9                     2.8700812       1.5187817
  11 STRETCH   4  5                     2.8406886       1.5032278
  12 STRETCH   4 16                     2.0639170       1.0921779
  13 STRETCH   5  6                     2.5719921       1.3610397
  14 STRETCH   5 17                     2.0514351       1.0855728
  15 STRETCH   6  7                     2.8018906       1.4826968
  16 STRETCH   6 18                     2.0710068       1.0959297
  17 STRETCH   7  8                     2.5339724       1.3409206
  18 STRETCH   7 19                     2.0538358       1.0868432
  19 STRETCH   8 20                     2.0435576       1.0814042
  20 STRETCH   8  9                     2.8074953       1.4856626
  21 STRETCH   9 10                     2.3233669       1.2294729
  22 BEND      1  2 13                  2.0903173     119.7663587
  23 BEND      1  6  7                  1.8387477     105.3524843
  24 BEND      1  6  5                  1.7960266     102.9047456
  25 BEND      1  6 18                  1.6754349      95.9953486
  26 BEND      1  2  3                  2.0954111     120.0582101
  27 BEND      2  1 12                  2.0191590     115.6892897
  28 BEND      2  1 11                  2.0599598     118.0270007
  29 BEND      2  3 15                  1.9618121     112.4035512
  30 BEND      2  3  4                  1.8454911     105.7388531
  31 BEND      2  1  6                  1.9114465     109.5178171
  32 BEND      2  3 14                  2.0137347     115.3785013
  33 BEND      3  2 13                  2.0479574     117.3393128
  34 BEND      3  4 16                  1.8530269     106.1706191
  35 BEND      3  4  5                  1.8025095     103.2761873
  36 BEND      3  4  9                  1.8215334     104.3661736
  37 BEND      4  5 17                  2.0691747     118.5549764
  38 BEND      4  5  6                  2.0251468     116.0323644
  39 BEND      4  9 10                  2.1395362     122.5863951
  40 BEND      4  9  8                  2.0570014     117.8574981
  41 BEND      4  3 15                  1.7980390     103.0200444
  42 BEND      4  3 14                  1.8554330     106.3084772
  43 BEND      5  6  7                  2.0063972     114.9580927
  44 BEND      5  4 16                  2.0097040     115.1475576
  45 BEND      5  4  9                  1.9844806     113.7023627
  46 BEND      5  6 18                  2.0638333     118.2489381
  47 BEND      6  5 17                  2.1038068     120.5392479
  48 BEND      6  1 12                  1.5337342      87.8764990
  49 BEND      6  1 11                  1.7984770     103.0451428
  50 BEND      6  7 19                  2.0344338     116.5644677
  51 BEND      6  7  8                  2.1462652     122.9719370
  52 BEND      7  8 20                  2.1557335     123.5144291
  53 BEND      7  8  9                  2.0747364     118.8736397
  54 BEND      7  6 18                  2.0135868     115.3700241
  55 BEND      8  9 10                  2.0860523     119.5219918
  56 BEND      8  7 19                  2.1024805     120.4632611
  57 BEND      9  4 16                  1.9678644     112.7503273
  58 BEND      9  8 20                  2.0527003     117.6110634
  59 BEND     11  1 12                  2.0381153     116.7754068
  60 BEND     14  3 15                  1.9674969     112.7292679
  61 TORSION   1  6  5 17               1.5198836      87.0829152
  62 TORSION   1  6  5  4              -1.1842041     -67.8498965
  63 TORSION   1  2  3 15              -2.8578741    -163.7441247
  64 TORSION   1  2  3  4              -0.9087633     -52.0683024
  65 TORSION   1  2  3 14               1.1361992      65.0994215
  66 TORSION   1  6  7  8               1.5057296      86.2719514
  67 TORSION   1  6  7 19              -1.6395234     -93.9377717
  68 TORSION   2  3  4  9               1.9238274     110.2271898
  69 TORSION   2  1  6 18               2.1523468     123.3203876
  70 TORSION   2  1  6  5               0.0436892       2.5032088
  71 TORSION   2  1  6  7              -2.0644011    -118.2814710
  72 TORSION   2  3  4 16              -2.2765717    -130.4379508
  73 TORSION   2  3  4  5              -0.1553796      -8.9025981
  74 TORSION   3  4  9 10               1.4151784      81.0837497
  75 TORSION   3  4  9  8              -1.6891187     -96.7793753
  76 TORSION   3  4  5 17              -1.4662129     -84.0078114
  77 TORSION   3  4  5  6               1.2469496      71.4449519
  78 TORSION   3  2  1 11               3.0445929     174.4423217
  79 TORSION   3  2  1  6               0.9958191      57.0562329
  80 TORSION   3  2  1 12              -0.7022083     -40.2335700
  81 TORSION   4  3  2 13               1.8994026     108.8277529
  82 TORSION   4  9  8 20              -3.0783409    -176.3759425
  83 TORSION   4  9  8  7               0.0689567       3.9509281
  84 TORSION   4  5  6 18              -3.0022578    -172.0167009
  85 TORSION   4  5  6  7               0.8049160      46.1182873
  86 TORSION   5  4  3 15               1.9065086     109.2348947
  87 TORSION   5  4  3 14              -2.3042524    -132.0239362
  88 TORSION   5  6  1 11              -2.1629688    -123.9289858
  89 TORSION   5  6  7 19               2.6795724     153.5281907
  90 TORSION   5  6  7  8              -0.4583599     -26.2620863
  91 TORSION   5  6  1 12               2.0779965     119.0604286
  92 TORSION   5  4  9  8               0.2621312      15.0190097
  93 TORSION   5  4  9 10              -2.9167570    -167.1178653
  94 TORSION   6  5  4 16              -3.0244057    -173.2856807
  95 TORSION   6  5  4  9              -0.7158101     -41.0128998
  96 TORSION   6  7  8  9               0.0077343       0.4431434
  97 TORSION   6  7  8 20              -3.1277950    -179.2094550
  98 TORSION   6  1  2 13              -1.8042575    -103.3763372
  99 TORSION   7  8  9 10              -3.0365233    -173.9799708
 100 TORSION   7  6  1 11               2.0121261     115.2863343
 101 TORSION   7  6  1 12              -0.0300939      -1.7242513
 102 TORSION   7  6  5 17              -2.7741817    -158.9489009
 103 TORSION   8  7  6 18              -2.9539117    -169.2466744
 104 TORSION   8  9  4 16               2.5907645     148.4398696
 105 TORSION   9  4  5 17               2.8542126     163.5343369
 106 TORSION   9  8  7 19              -3.1300601    -179.3392314
 107 TORSION   9  4  3 15              -2.2974697    -131.6353174
 108 TORSION   9  4  3 14              -0.2250453     -12.8941483
 109 TORSION  10  9  8 20               0.0993644       5.6931586
 110 TORSION  10  9  4 16              -0.5881237     -33.6970054
 111 TORSION  11  1  2 13               0.2445163      14.0097515
 112 TORSION  11  1  6 18              -0.0543113      -3.1118070
 113 TORSION  12  1  6 18              -2.0965313    -120.1223926
 114 TORSION  12  1  2 13               2.7809005     159.3338599
 115 TORSION  13  2  3 15              -0.0497082      -2.8480693
 116 TORSION  13  2  3 14              -2.3388201    -134.0045231
 117 TORSION  14  3  4 16               1.8577409     106.4407111
 118 TORSION  15  3  4 16              -0.2146835     -12.3004580
 119 TORSION  16  4  5 17               0.5456171      31.2615560
 120 TORSION  17  5  6 18              -0.2981701     -17.0838892
 121 TORSION  18  6  7 19               0.1840206      10.5436026
 122 TORSION  19  7  8 20               0.0175959       1.0081701

     ------------------------------------------
     THE POINT GROUP IS C1 , NAXIS= 0, ORDER= 1
     ------------------------------------------

     DIMENSIONS OF THE SYMMETRY SUBSPACES ARE
 A   =   60

 ..... DONE SETTING UP THE RUN .....
 STEP CPU TIME =     0.08 TOTAL CPU TIME =          0.1 (      0.0 MIN)
 TOTAL WALL CLOCK TIME=          0.1 SECONDS, CPU UTILIZATION IS    80.00%


          -----------------------------
          STATIONARY POINT LOCATION RUN
          -----------------------------


           ** GEOMETRY CONSTRAINTS ARE BEING APPLIED. **

          TRANSFORMING DISPLACEMENT FROM INTERNALS TO CARTESIANS
          THE ROOT MEAN SQUARE ERROR IN ITERATION   1 IS   0.00000139
          THE ROOT MEAN SQUARE ERROR IN ITERATION   2 IS   0.00000000
 WARNING! THE RADIUS IN CARTESIANS IS    0.00949
 OBTAINING INITIAL HESSIAN, HESS=CALC    

     ---------------------------------
     HESSIAN MATRIX CONTROL PARAMETERS
     ---------------------------------
     METHOD=ANALYTIC   NVIB  =       2   VIBSIZ= 0.01000
     RDHESS=       F   PURIFY=       F   PRTIFC=       F
     VIBANL=       F   DECOMP=       F   PROJCT=       F
     SCLFAC= 1.00000   PRTSCN=       F   NPRT  =       0
     PULCOR=       F   NPUN  =       0   REDOVB=       T
     HSSTYP=GENERAL 
 Old integral subroutine is used

     ------------------------------
     CPHF RESPONSE SOLUTION OPTIONS
     ------------------------------
     POLAR  =       F     NWORD  =       0
     CPHF   =AO      

          ********************
          1 ELECTRON INTEGRALS
          ********************
 ...... END OF ONE-ELECTRON INTEGRALS ......
 STEP CPU TIME =     0.04 TOTAL CPU TIME =          0.1 (      0.0 MIN)
 TOTAL WALL CLOCK TIME=          0.2 SECONDS, CPU UTILIZATION IS    80.00%

          -------------
          GUESS OPTIONS
          -------------
          GUESS =HUCKEL            NORB  =       0          NORDER=       0
          MIX   =       F          PRTMO =       F          PUNMO =       F
          TOLZ  = 1.0E-08          TOLE  = 1.0E-05
          SYMDEN=       F          PURIFY=       F

 INITIAL GUESS ORBITALS GENERATED BY HUCKEL   ROUTINE.
 HUCKEL GUESS REQUIRES     53820 WORDS.

 SYMMETRIES FOR INITIAL GUESS ORBITALS FOLLOW.   BOTH SET(S).
    36 ORBITALS ARE OCCUPIED (   10 CORE ORBITALS).
    11=A       12=A       13=A       14=A       15=A       16=A       17=A   
    18=A       19=A       20=A       21=A       22=A       23=A       24=A   
    25=A       26=A       27=A       28=A       29=A       30=A       31=A   
    32=A       33=A       34=A       35=A       36=A       37=A       38=A   
    39=A       40=A       41=A       42=A       43=A       44=A       45=A   
    46=A   
 ...... END OF INITIAL ORBITAL SELECTION ......
 STEP CPU TIME =     0.02 TOTAL CPU TIME =          0.1 (      0.0 MIN)
 TOTAL WALL CLOCK TIME=          0.2 SECONDS, CPU UTILIZATION IS    77.78%

                    ----------------------
                    AO INTEGRAL TECHNOLOGY
                    ----------------------
     S,P,L SHELL ROTATED AXIS INTEGRALS, REPROGRAMMED BY
        KAZUYA ISHIMURA (IMS) AND JOSE SIERRA (SYNSTAR).
     S,P,D,L SHELL ROTATED AXIS INTEGRALS PROGRAMMED BY
        KAZUYA ISHIMURA (INSTITUTE FOR MOLECULAR SCIENCE).
     S,P,D,F,G SHELL TO TOTAL QUARTET ANGULAR MOMENTUM SUM 5,
        ERIC PROGRAM BY GRAHAM FLETCHER (ELORET AND NASA ADVANCED
        SUPERCOMPUTING DIVISION, AMES RESEARCH CENTER).
     S,P,D,F,G,L SHELL GENERAL RYS QUADRATURE PROGRAMMED BY
        MICHEL DUPUIS (PACIFIC NORTHWEST NATIONAL LABORATORY).

          --------------------
          2 ELECTRON INTEGRALS
          --------------------

 THE -PK- OPTION IS OFF, THE INTEGRALS ARE NOT IN SUPERMATRIX FORM.
 STORING   15000 INTEGRALS/RECORD ON DISK, USING 12 BYTES/INTEGRAL.
 TWO ELECTRON INTEGRAL EVALUATION REQUIRES   89821 WORDS OF MEMORY.
 SCHWARZ INEQUALITY OVERHEAD:      1797 INTEGRALS, T=        0.00
 II,JST,KST,LST =  1  1  1  1 NREC =         1 INTLOC =    1
 II,JST,KST,LST =  2  1  1  1 NREC =         1 INTLOC =    2
 II,JST,KST,LST =  3  1  1  1 NREC =         1 INTLOC =   34
 II,JST,KST,LST =  4  1  1  1 NREC =         1 INTLOC =  144
 II,JST,KST,LST =  5  1  1  1 NREC =         1 INTLOC = 1366
 II,JST,KST,LST =  6  1  1  1 NREC =         1 INTLOC = 1958
 II,JST,KST,LST =  7  1  1  1 NREC =         1 INTLOC = 6857
 II,JST,KST,LST =  8  1  1  1 NREC =         1 INTLOC = 8472
 II,JST,KST,LST =  9  1  1  1 NREC =         2 INTLOC = 5850
 II,JST,KST,LST = 10  1  1  1 NREC =         2 INTLOC = 9571
 II,JST,KST,LST = 11  1  1  1 NREC =         4 INTLOC = 4897
 II,JST,KST,LST = 12  1  1  1 NREC =         4 INTLOC =11981
 II,JST,KST,LST = 13  1  1  1 NREC =         7 INTLOC =11996
 II,JST,KST,LST = 14  1  1  1 NREC =         8 INTLOC = 8204
 II,JST,KST,LST = 15  1  1  1 NREC =        13 INTLOC = 5196
 II,JST,KST,LST = 16  1  1  1 NREC =        14 INTLOC = 7069
 II,JST,KST,LST = 17  1  1  1 NREC =        21 INTLOC = 9792
 II,JST,KST,LST = 18  1  1  1 NREC =        23 INTLOC = 5709
 II,JST,KST,LST = 19  1  1  1 NREC =        33 INTLOC =13057
 II,JST,KST,LST = 20  1  1  1 NREC =        35 INTLOC = 8875
 II,JST,KST,LST = 21  1  1  1 NREC =        47 INTLOC =13803
 II,JST,KST,LST = 22  1  1  1 NREC =        51 INTLOC =10136
 II,JST,KST,LST = 23  1  1  1 NREC =        56 INTLOC =  423
 II,JST,KST,LST = 24  1  1  1 NREC =        60 INTLOC = 3119
 II,JST,KST,LST = 25  1  1  1 NREC =        65 INTLOC = 1169
 II,JST,KST,LST = 26  1  1  1 NREC =        70 INTLOC =  749
 II,JST,KST,LST = 27  1  1  1 NREC =        75 INTLOC = 7396
 II,JST,KST,LST = 28  1  1  1 NREC =        81 INTLOC = 2123
 II,JST,KST,LST = 29  1  1  1 NREC =        86 INTLOC =14935
 II,JST,KST,LST = 30  1  1  1 NREC =        93 INTLOC = 1453
 SCHWARZ INEQUALITY TEST SKIPPED       25155 INTEGRAL BLOCKS.
 TOTAL NUMBER OF NONZERO TWO-ELECTRON INTEGRALS =             1477570
         99 INTEGRAL RECORDS WERE STORED ON DISK FILE  8.
  ...... END OF TWO-ELECTRON INTEGRALS .....
 STEP CPU TIME =     0.31 TOTAL CPU TIME =          0.5 (      0.0 MIN)
 TOTAL WALL CLOCK TIME=          0.5 SECONDS, CPU UTILIZATION IS    93.75%

          --------------------------
                 RHF SCF CALCULATION
          --------------------------

     NUCLEAR ENERGY =       505.3633610999
     MAXIT =   30     NPUNCH=    2
     EXTRAP=T  DAMP=F  SHIFT=F  RSTRCT=F  DIIS=F  DEM=F  SOSCF=T
     DENSITY MATRIX CONV=  1.00E-05
     SOSCF WILL OPTIMIZE     864 ORBITAL ROTATIONS, SOGTOL=   0.250
     MEMORY REQUIRED FOR RHF ITERS=     59496 WORDS.

 ITER EX DEM     TOTAL ENERGY        E CHANGE  DENSITY CHANGE     ORB. GRAD
   1  0  0     -415.4863005054  -415.4863005054   0.520829300   0.000000000
          ---------------START SECOND ORDER SCF---------------
   2  1  0     -415.9998193709    -0.5135188655   0.277312168   0.061268530
   3  2  0     -416.0323799981    -0.0325606272   0.132289936   0.049708707
   4  3  0     -416.0668822547    -0.0345022566   0.017634564   0.006293358
   5  4  0     -416.0678175269    -0.0009352722   0.005851042   0.003218978
   6  5  0     -416.0679590176    -0.0001414906   0.001886566   0.000842995
   7  6  0     -416.0679793349    -0.0000203174   0.000857137   0.000248726
   8  7  0     -416.0679813867    -0.0000020518   0.000374085   0.000102368
   9  8  0     -416.0679818113    -0.0000004246   0.000114059   0.000035162
  10  9  0     -416.0679818667    -0.0000000553   0.000060316   0.000016117
  11 10  0     -416.0679818752    -0.0000000085   0.000022747   0.000003371
  12 11  0     -416.0679818762    -0.0000000010   0.000009083   0.000002189
  13 12  0     -416.0679818764    -0.0000000002   0.000005839   0.000000854

          -----------------
          DENSITY CONVERGED
          -----------------
     TIME TO FORM FOCK OPERATORS=       0.3 SECONDS (       0.0 SEC/ITER)
     TIME TO SOLVE SCF EQUATIONS=       0.0 SECONDS (       0.0 SEC/ITER)

 FINAL RHF ENERGY IS     -416.0679818764 AFTER  13 ITERATIONS

          ------------
          EIGENVECTORS
          ------------

                      1          2          3          4          5
                  -20.2542   -11.1106   -11.0518   -11.0508   -11.0499
                     A          A          A          A          A   
    1  C  1  S    0.000000   0.000036  -0.019385  -0.000579  -0.002304
    2  C  1  S    0.000001   0.000029  -0.003436  -0.000169   0.000029
    3  C  1  X    0.000001   0.000004  -0.001234  -0.000009   0.000001
    4  C  1  Y   -0.000002   0.000030  -0.001159  -0.000077   0.000017
    5  C  1  Z    0.000001  -0.000015  -0.001915  -0.000122  -0.000079
    6  C  2  S    0.000000   0.000017  -0.000378   0.000153  -0.001398
    7  C  2  S   -0.000000   0.000011   0.000288   0.001985  -0.005470
    8  C  2  X   -0.000000   0.000014   0.000180  -0.000954   0.002811
    9  C  2  Y   -0.000007   0.000042   0.000162   0.000469  -0.001236
   10  C  2  Z    0.000003  -0.000011   0.000006   0.000935  -0.002539
   11  C  3  S   -0.000007  -0.000329   0.003716  -0.316848   0.940394
   12  C  3  S    0.000025   0.000117   0.000224  -0.013520   0.032064
   13  C  3  X   -0.000003  -0.000095   0.000005  -0.000876  -0.001286
   14  C  3  Y    0.000047  -0.000192   0.000020  -0.000831  -0.001464
   15  C  3  Z   -0.000001  -0.000038   0.000060  -0.001235  -0.001646
   16  C  4  S   -0.000023  -0.001869  -0.035609   0.939381   0.317534
   17  C  4  S    0.000262  -0.005559  -0.001216   0.033715   0.008710
   18  C  4  X   -0.000376   0.001169  -0.000068   0.000584   0.001493
   19  C  4  Y    0.000091  -0.003869  -0.000115   0.000694   0.001541
   20  C  4  Z    0.000228   0.000553   0.000196   0.000566   0.001975
   21  C  5  S    0.000005  -0.000303   0.009008  -0.001287  -0.001255
   22  C  5  S    0.000013   0.000086  -0.007096  -0.005901  -0.001911
   23  C  5  X   -0.000011  -0.000014  -0.001948   0.003778   0.001219
   24  C  5  Y   -0.000079  -0.000069  -0.001979  -0.000924  -0.000278
   25  C  5  Z    0.000020  -0.000007   0.003863  -0.000837  -0.000267
   26  C  6  S    0.000003  -0.000335   0.990777   0.034756   0.007744
   27  C  6  S    0.000015  -0.000065   0.036974   0.001459   0.000373
   28  C  6  X    0.000038   0.000112   0.000024   0.000063   0.000051
   29  C  6  Y   -0.000005  -0.000067   0.000517   0.000053   0.000004
   30  C  6  Z   -0.000008  -0.000043   0.001987   0.000083   0.000042
   31  C  7  S    0.000007  -0.000415  -0.026742  -0.009732  -0.003594
   32  C  7  S    0.000016   0.000123  -0.007296  -0.000644  -0.000189
   33  C  7  X    0.000016   0.000008  -0.000997   0.000090   0.000030
   34  C  7  Y    0.000078  -0.000015   0.004269   0.000222   0.000049
   35  C  7  Z   -0.000033  -0.000001  -0.000672  -0.000098  -0.000033
   36  C  8  S   -0.000026  -0.000821  -0.001043  -0.000962  -0.000227
   37  C  8  S    0.000375  -0.006035   0.000375   0.000191   0.000087
   38  C  8  X   -0.000393   0.002703   0.000120   0.000077   0.000004
   39  C  8  Y    0.000247   0.002260  -0.000165  -0.000050  -0.000028
   40  C  8  Z    0.000144  -0.002367   0.000016  -0.000005  -0.000008
   41  C  9  S    0.000557   0.992508   0.000262   0.002595   0.001259
   42  C  9  S   -0.007139   0.033177   0.000165  -0.005579  -0.001813
   43  C  9  X    0.005381  -0.000316  -0.000090  -0.001061  -0.000336
   44  C  9  Y   -0.002493   0.000431  -0.000118   0.003848   0.001228
   45  C  9  Z   -0.002154  -0.000169   0.000140  -0.000802  -0.000247
   46  O 10  S    0.994275   0.000183   0.000006  -0.000016  -0.000015
   47  O 10  S    0.025896  -0.005837  -0.000063   0.000219   0.000122
   48  O 10  X    0.004719  -0.001542  -0.000035   0.000083   0.000040
   49  O 10  Y   -0.002161   0.000698   0.000024  -0.000172  -0.000089
   50  O 10  Z   -0.001906   0.000646   0.000001   0.000047  -0.000003
   51  H 11  S   -0.000001  -0.000006   0.000325   0.000011  -0.000063
   52  H 12  S    0.000004  -0.000077   0.000123   0.000039  -0.000123
   53  H 13  S   -0.000002   0.000005  -0.000001  -0.000039   0.000098
   54  H 14  S    0.000006  -0.000463  -0.000029   0.002262  -0.006448
   55  H 15  S    0.000003  -0.000062  -0.000040   0.002269  -0.006456
   56  H 16  S   -0.000136  -0.000054   0.000119  -0.006561  -0.002105
   57  H 17  S   -0.000024  -0.000065   0.000073   0.000076   0.000025
   58  H 18  S   -0.000017  -0.000040  -0.006820  -0.000324  -0.000092
   59  H 19  S   -0.000024  -0.000062   0.000277   0.000023   0.000010
   60  H 20  S   -0.000214   0.000022  -0.000032  -0.000049  -0.000018

                      6          7          8          9         10
                  -11.0483   -11.0368   -11.0256   -11.0203   -11.0047
                     A          A          A          A          A   
    1  C  1  S   -0.000162   0.991910  -0.000678   0.002309  -0.008309
    2  C  1  S    0.000349   0.036423   0.000073   0.000191  -0.007914
    3  C  1  X   -0.000168  -0.001566  -0.000017   0.000006   0.002988
    4  C  1  Y    0.000087  -0.000971   0.000075   0.000030   0.003057
    5  C  1  Z   -0.000180  -0.000294  -0.000038  -0.000188  -0.001981
    6  C  2  S    0.000027   0.008982   0.000046  -0.007129   0.992141
    7  C  2  S   -0.000022  -0.007299   0.000016  -0.000708   0.035980
    8  C  2  X   -0.000021  -0.003013   0.000012  -0.000358   0.001794
    9  C  2  Y    0.000014  -0.002943   0.000000  -0.000203   0.001047
   10  C  2  Z    0.000025   0.001965   0.000002  -0.000506   0.000556
   11  C  3  S    0.000393   0.002144  -0.000109   0.000770   0.002301
   12  C  3  S   -0.000007   0.000163   0.000015   0.000152  -0.005706
   13  C  3  X   -0.000006  -0.000058  -0.000004  -0.000121  -0.003017
   14  C  3  Y    0.000001  -0.000131   0.000014   0.000014   0.001361
   15  C  3  Z   -0.000023   0.000022  -0.000002  -0.000062   0.002678
   16  C  4  S    0.009456   0.000598   0.000803   0.002899   0.000318
   17  C  4  S    0.000329   0.000036   0.000236  -0.005759   0.000091
   18  C  4  X   -0.000050   0.000023   0.000034  -0.004027  -0.000046
   19  C  4  Y   -0.000078  -0.000010   0.000038   0.000865   0.000015
   20  C  4  Z    0.000105   0.000081   0.000007   0.001041   0.000054
   21  C  5  S   -0.001467  -0.002005  -0.006048   0.992123   0.007369
   22  C  5  S   -0.000209  -0.000116  -0.000342   0.035941  -0.000221
   23  C  5  X    0.000033   0.000046   0.000070  -0.000397   0.000307
   24  C  5  Y   -0.000232   0.000048  -0.000193  -0.000304   0.000330
   25  C  5  Z    0.000031   0.000033   0.000047  -0.002497   0.000450
   26  C  6  S    0.028078   0.020323   0.000681  -0.008196   0.000148
   27  C  6  S   -0.004997  -0.001942   0.000420  -0.007897   0.000157
   28  C  6  X    0.000994   0.001298   0.000017   0.001616   0.000005
   29  C  6  Y   -0.004096   0.001304   0.000134   0.002105   0.000009
   30  C  6  Z    0.000384   0.001808   0.000013  -0.003869  -0.000061
   31  C  7  S    0.991683  -0.000427  -0.015709   0.001706  -0.000027
   32  C  7  S    0.035732   0.000097  -0.008429   0.000116  -0.000014
   33  C  7  X   -0.001073  -0.000111   0.003736   0.000117  -0.000034
   34  C  7  Y    0.000389  -0.000080  -0.001944  -0.000001   0.000007
   35  C  7  Z    0.000527  -0.000180  -0.001946  -0.000254  -0.000008
   36  C  8  S    0.016281   0.000622   0.992024   0.006138  -0.000009
   37  C  8  S   -0.007124   0.000068   0.036423   0.000175  -0.000012
   38  C  8  X   -0.003623  -0.000004   0.001090  -0.000049  -0.000003
   39  C  8  Y    0.001915  -0.000025  -0.001085   0.000140   0.000002
   40  C  8  Z    0.001860  -0.000030  -0.000435  -0.000108  -0.000001
   41  C  9  S    0.000537  -0.000034   0.001803   0.000380  -0.000019
   42  C  9  S    0.000051   0.000011  -0.006251   0.000071  -0.000001
   43  C  9  X   -0.000172  -0.000005  -0.002590  -0.000127   0.000000
   44  C  9  Y    0.000165  -0.000015  -0.002440  -0.000019  -0.000002
   45  C  9  Z    0.000056  -0.000010   0.002388  -0.000012  -0.000035
   46  O 10  S    0.000014   0.000000  -0.000019   0.000009   0.000000
   47  O 10  S   -0.000128  -0.000002   0.000307  -0.000077   0.000002
   48  O 10  X   -0.000065  -0.000002   0.000171  -0.000019   0.000003
   49  O 10  Y    0.000005   0.000002   0.000032   0.000041   0.000003
   50  O 10  Z    0.000030  -0.000000  -0.000103   0.000017   0.000003
   51  H 11  S   -0.000018  -0.006807  -0.000003  -0.000053   0.000152
   52  H 12  S   -0.001074  -0.006810  -0.000207  -0.000031   0.000020
   53  H 13  S    0.000006   0.000053  -0.000002   0.000078  -0.006910
   54  H 14  S    0.000005   0.000010  -0.000019  -0.000075  -0.000096
   55  H 15  S   -0.000000  -0.000111  -0.000002  -0.000015   0.000038
   56  H 16  S   -0.000116  -0.000030  -0.000061   0.000014  -0.000043
   57  H 17  S   -0.000084   0.000014  -0.000011  -0.006871  -0.000085
   58  H 18  S   -0.000126  -0.000022  -0.000085   0.000166  -0.000025
   59  H 19  S   -0.006826   0.000017   0.000215  -0.000117   0.000002
   60  H 20  S    0.000023  -0.000004  -0.006839  -0.000098   0.000001

                     11         12         13         14         15
                   -1.3066    -1.0875    -1.0078    -0.9582    -0.9333
                     A          A          A          A          A   
    1  C  1  S   -0.000746  -0.055306  -0.125325   0.071458  -0.055607
    2  C  1  S    0.001806   0.145408   0.335867  -0.195071   0.157918
    3  C  1  X   -0.000237  -0.010560  -0.064535   0.037379   0.024643
    4  C  1  Y    0.000213  -0.001461  -0.056991   0.027097   0.014068
    5  C  1  Z    0.000501   0.025108   0.032264  -0.000652   0.003948
    6  C  2  S   -0.000843  -0.047164  -0.148073   0.068946   0.015139
    7  C  2  S    0.001874   0.118164   0.386566  -0.183536  -0.043278
    8  C  2  X   -0.000101   0.014705   0.029027  -0.026255   0.060590
    9  C  2  Y    0.000622   0.026570   0.060121  -0.025553   0.009143
   10  C  2  Z    0.000517   0.003952   0.001073   0.021595  -0.045973
   11  C  3  S   -0.002636  -0.035190  -0.096807   0.013453   0.089056
   12  C  3  S    0.006721   0.096866   0.270421  -0.035001  -0.260300
   13  C  3  X    0.000643   0.019481   0.037319  -0.006167   0.000096
   14  C  3  Y    0.001952   0.002115  -0.022379   0.020772  -0.003756
   15  C  3  Z    0.001311  -0.005291  -0.045936   0.041867  -0.009004
   16  C  4  S   -0.021860  -0.073500  -0.013232  -0.107433   0.114772
   17  C  4  S    0.055350   0.197653   0.039925   0.305271  -0.333395
   18  C  4  X   -0.007672   0.041872  -0.009791   0.060526   0.028801
   19  C  4  Y    0.027700   0.012903  -0.026679  -0.004512  -0.043079
   20  C  4  Z   -0.003208  -0.020997  -0.010706   0.007422  -0.001369
   21  C  5  S   -0.005104  -0.107884  -0.003050  -0.129994  -0.032633
   22  C  5  S    0.011774   0.273428   0.008820   0.353247   0.085251
   23  C  5  X   -0.004253  -0.011297  -0.012714  -0.032776   0.102415
   24  C  5  Y    0.002752   0.039495  -0.019317   0.011213   0.012364
   25  C  5  Z   -0.000539  -0.059303  -0.000132  -0.019434  -0.089990
   26  C  6  S   -0.003608  -0.127562   0.017590  -0.046065  -0.124726
   27  C  6  S    0.008571   0.332761  -0.046287   0.122610   0.350366
   28  C  6  X   -0.002283  -0.041785  -0.003052  -0.012164   0.016112
   29  C  6  Y    0.001553   0.019269  -0.056856  -0.079206  -0.008823
   30  C  6  Z    0.001821   0.045024  -0.014276   0.092289   0.011633
   31  C  7  S   -0.006747  -0.111197   0.085982   0.098305  -0.023299
   32  C  7  S    0.016077   0.284368  -0.228268  -0.267464   0.066850
   33  C  7  X   -0.006394  -0.032503   0.042420   0.066250   0.073558
   34  C  7  Y    0.001057  -0.037831  -0.019188  -0.066839  -0.088087
   35  C  7  Z    0.003765   0.029852  -0.028813  -0.016298  -0.027395
   36  C  8  S   -0.024655  -0.083030   0.088313   0.115855   0.074218
   37  C  8  S    0.058765   0.210465  -0.231582  -0.310802  -0.202418
   38  C  8  X   -0.018791   0.041283  -0.038888  -0.051161   0.028516
   39  C  8  Y   -0.017288  -0.049029   0.032091   0.016659   0.026967
   40  C  8  Z    0.016569  -0.013740   0.014275   0.034641  -0.026501
[...]
 19   H            X -0.03746483 -0.00187250  0.01519630 -0.02008568 -0.00101277
                   Y  0.05526306  0.00188396 -0.01442102  0.17475122  0.03617149
                   Z -0.00319302  0.00015515 -0.00772358 -0.05195599 -0.01226678
 20   H            X  0.00767087 -0.00012959 -0.00023221  0.02749197  0.06481752
                   Y -0.01627090  0.00000837  0.01276795  0.11140476  0.03925413
                   Z  0.00422265 -0.00069358 -0.01591561 -0.07869168 -0.06506667

 TRANS. SAYVETZ    X  0.00000332  0.00000054  0.00000074 -0.00000018 -0.00000066
                   Y -0.00000073  0.00000044  0.00000159  0.00000207 -0.00000055
                   Z -0.00000171  0.00000155  0.00000024 -0.00000070 -0.00000234
               TOTAL  0.00000380  0.00000169  0.00000177  0.00000219  0.00000249

   ROT. SAYVETZ    X  0.00405415 -0.00403380 -0.00453546  0.00028952 -0.00034730
                   Y -0.00400381 -0.00135568  0.01237392 -0.00174730 -0.00132906
                   Z -0.00012259  0.00311891 -0.00451567  0.00089832  0.00099979
               TOTAL  0.00569927  0.00527607  0.01393110  0.00198592  0.00169900

                           51          52          53          54          55
       FREQUENCY:      3634.34     3638.71     3689.50     3697.31     3699.06  
        SYMMETRY:         A           A           A           A           A   
    REDUCED MASS:      1.06235     1.06452     1.09084     1.09393     1.09619
    IR INTENSITY:      0.02530     0.10640     0.12792     0.07686     0.09947

  1   C            X -0.02645377  0.01725235 -0.00263367  0.00005383  0.00336701
                   Y -0.01906082  0.01290042 -0.00344868 -0.00148833  0.00827129
                   Z  0.04602888 -0.03172686  0.00465337  0.00157846 -0.00745408
  2   C            X  0.00463488 -0.00526952 -0.00330371 -0.00320882  0.01755076
                   Y -0.00850591 -0.00222629  0.01494142  0.01284710 -0.07735530
                   Z  0.00270630  0.00497272 -0.00275380 -0.00212404  0.01430028
  3   C            X  0.03481052  0.05482717  0.00540957  0.00258339 -0.00853946
                   Y -0.00917151 -0.01443367 -0.00318171 -0.00138174  0.00752482
                   Z -0.00715466 -0.00991152 -0.00070742 -0.00137081  0.00115450
  4   C            X -0.00116906 -0.00135024  0.02384094 -0.02378834  0.00360837
                   Y -0.00172129 -0.00029793  0.02604938 -0.02234660  0.00307158
                   Z  0.00283110  0.00014604 -0.04498077  0.04124922 -0.00523712
  5   C            X -0.00162020  0.00011512  0.01707631  0.00735109  0.00147480
                   Y  0.00318017  0.00075953 -0.03621095 -0.00608934 -0.00205850
                   Z -0.00136565 -0.00066815  0.01730634  0.00022375  0.00075396
  6   C            X  0.00317576  0.00086065 -0.03440342 -0.05383542 -0.01705372
                   Y -0.00080245 -0.00026483  0.00875162  0.01097709  0.00331568
                   Z -0.00086272  0.00096894  0.00754008  0.01366612  0.00512227
  7   C            X -0.00062334 -0.00004660  0.00604170  0.01620870  0.00727862
                   Y -0.00045988  0.00007236  0.00386282  0.01190669  0.00569660
                   Z  0.00007342  0.00013771 -0.00618305 -0.01707793 -0.00782816
  8   C            X -0.00019429 -0.00010844  0.00067501  0.00258785  0.00112064
                   Y  0.00053034  0.00016917 -0.00429289 -0.01354365 -0.00596243
                   Z -0.00015296  0.00003399  0.00107043  0.00335393  0.00151921
  9   C            X -0.00024723 -0.00007516  0.00012843 -0.00008504  0.00005959
                   Y  0.00009306 -0.00012482 -0.00126014  0.00204870  0.00004514
                   Z -0.00030928 -0.00019077  0.00032548 -0.00074113 -0.00010178
 10   O            X  0.00001918 -0.00002388 -0.00001258  0.00010292 -0.00000228
                   Y -0.00001664  0.00000704  0.00007176 -0.00025860 -0.00000021
                   Z  0.00001283 -0.00001423 -0.00003229  0.00004122  0.00002211
 11   H            X  0.42952941 -0.28641358  0.03519351  0.00735474 -0.03122717
                   Y -0.27105619  0.18075507 -0.02045638 -0.00396579  0.01760094
                   Z -0.27035931  0.17969118 -0.02035718 -0.00432690  0.01828166
 12   H            X -0.15856405  0.10716721 -0.01596145 -0.00703232  0.02985686
                   Y  0.46848884 -0.31544462  0.05069888  0.01953716 -0.08096483
                   Z -0.24244157  0.16485009 -0.02395425 -0.01002718  0.04125120
 13   H            X -0.03655320 -0.00940931  0.04022513  0.03487662 -0.21020655
                   Y  0.14996980  0.02918977 -0.16307320 -0.14228528  0.85763708
                   Z -0.03190503 -0.00461507  0.03432903  0.02967413 -0.17885969
 14   H            X -0.15142464 -0.23714091 -0.02418863 -0.00871747  0.03811881
                   Y  0.31452529  0.48794830  0.05398057  0.01913611 -0.08192740
                   Z -0.11989544 -0.18698791 -0.01862163 -0.00711913  0.03334357
 15   H            X -0.23354618 -0.35771424 -0.02574616 -0.01010414  0.02157239
                   Y -0.21935111 -0.33667146 -0.02392514 -0.00948184  0.01903092
                   Z  0.18129376  0.27843288  0.02187053  0.00903541 -0.01826205
 16   H            X  0.01631368  0.00224524 -0.27297753  0.24855699 -0.03297009
                   Y  0.01739282  0.00234660 -0.28379415  0.25620766 -0.03387503
                   Z -0.03456258 -0.00477592  0.51769010 -0.46772685  0.06076689
 17   H            X  0.01864707  0.00394444 -0.21119625 -0.03903182 -0.01455613
                   Y -0.03776134 -0.00811319  0.41805279  0.07487699  0.02875728
                   Z  0.01743448  0.00379602 -0.19821832 -0.03445179 -0.01345878
 18   H            X -0.03851272 -0.01220482  0.39728203  0.61012045  0.19178616
                   Y  0.00731926  0.00225835 -0.08604262 -0.13124484 -0.04148925
                   Z  0.00726183  0.00200965 -0.09075606 -0.14113839 -0.04539593
 19   H            X  0.00508193  0.00094147 -0.06171632 -0.17202084 -0.07834271
                   Y  0.00503995  0.00053941 -0.05517392 -0.15405309 -0.07021389
                   Z -0.00622709 -0.00087572  0.07005072  0.19401264  0.08849313
 20   H            X  0.00211258  0.00066740 -0.01349379 -0.04489921 -0.01956894
                   Y -0.00663071 -0.00188813  0.04654882  0.15955931  0.06950884
                   Z  0.00156018  0.00017941 -0.00897980 -0.03006585 -0.01305168

 TRANS. SAYVETZ    X  0.00000035 -0.00000046 -0.00000063  0.00000056 -0.00000023
                   Y -0.00000065  0.00000028 -0.00000042 -0.00000016  0.00000040
                   Z  0.00000213  0.00000017 -0.00000059 -0.00000007  0.00000055
               TOTAL  0.00000226  0.00000056  0.00000096  0.00000059  0.00000072

   ROT. SAYVETZ    X -0.00045053  0.00021304 -0.00066601  0.00043424  0.00012124
                   Y  0.00006846 -0.00100932  0.00020965 -0.00110787 -0.00007323
                   Z  0.00020930  0.00046879  0.00033391  0.00037459 -0.00001662
               TOTAL  0.00050147  0.00113309  0.00077396  0.00124750  0.00014262

                           56          57          58          59          60
       FREQUENCY:      3704.98     3715.89     3736.10     3785.88     3787.67  
        SYMMETRY:         A           A           A           A           A   
    REDUCED MASS:      1.09180     1.10090     1.10598     1.11706     1.11747
    IR INTENSITY:      0.49427     0.07554     0.06450     0.00062     0.01702

  1   C            X -0.00095554 -0.00105677  0.00022178  0.04966545  0.03061884
                   Y -0.00028342  0.00117665 -0.00027189 -0.06333415 -0.03845263
                   Z  0.00052715 -0.00043658  0.00005208 -0.00046019 -0.00074140
  2   C            X -0.00147871  0.00134564 -0.00002499 -0.00057437  0.00124109
                   Y  0.00749079 -0.00654146  0.00009447 -0.00108529 -0.00506083
                   Z -0.00142030  0.00100114  0.00000490  0.00072252  0.00054817
  3   C            X  0.00044392 -0.00027206  0.00015394  0.00677444 -0.01188800
                   Y -0.00056142  0.00118496 -0.00024679  0.04215298 -0.06884797
                   Z  0.00038219 -0.00089675  0.00010767 -0.02434266  0.03998406
  4   C            X  0.00767749 -0.01632162  0.00154237  0.00017664 -0.00020842
                   Y  0.00622933 -0.01104479  0.00128234 -0.00007401  0.00007603
                   Z -0.01225553  0.02248945 -0.00222206 -0.00003389  0.00055188
  5   C            X -0.00952678  0.02988719 -0.00249140 -0.00002591  0.00030509
                   Y  0.01472720 -0.05617308  0.00473527 -0.00021396 -0.00054487
                   Z -0.00621693  0.02947347 -0.00247285  0.00018117  0.00032686
  6   C            X  0.02471260  0.03824280 -0.00607653  0.00029410  0.00070924
                   Y -0.00769187 -0.00633731  0.00278032  0.00022756  0.00013371
                   Z -0.00495625 -0.01292984  0.00132244 -0.00014608 -0.00009249
  7   C            X  0.03578300  0.00084612 -0.03262587  0.00017444  0.00027085
                   Y  0.03329328  0.00363412 -0.01942495  0.00010623  0.00007059
                   Z -0.04071116 -0.00216251  0.03233364 -0.00044773 -0.00043355
  8   C            X  0.00812039  0.00350350  0.02543282  0.00000120 -0.00016676
                   Y -0.03809720 -0.01112675 -0.06905993 -0.00008076 -0.00002047
                   Z  0.00898341  0.00182160  0.00862604 -0.00004588 -0.00001517
  9   C            X  0.00047943 -0.00026188  0.00140084 -0.00000052 -0.00009812
                   Y  0.00097032  0.00119329  0.00118070  0.00001721 -0.00003085
                   Z -0.00077439 -0.00025599 -0.00153556  0.00011284 -0.00014115
 10   O            X  0.00000700  0.00011109 -0.00027016  0.00001648 -0.00002052
                   Y -0.00016362 -0.00014371 -0.00003938  0.00000668 -0.00000557
                   Z  0.00005528 -0.00002225  0.00022081  0.00000352 -0.00001833
 11   H            X  0.00573875  0.00496724 -0.00127194 -0.41555072 -0.25451986
                   Y -0.00333589 -0.00290152  0.00096178  0.26090332  0.16024894
                   Z -0.00333627 -0.00283745  0.00084567  0.26503288  0.16213811
 12   H            X -0.00150956  0.00432591 -0.00140660 -0.16596743 -0.10007419
                   Y  0.00312677 -0.01108679  0.00284035  0.48902182  0.29608087
                   Z -0.00210695  0.00553966 -0.00170972 -0.25930366 -0.15671928
 13   H            X  0.02030038 -0.01766778  0.00030095  0.00039757 -0.01474898
                   Y -0.08292576  0.07205976 -0.00077262  0.01353636  0.06141939
                   Z  0.01714006 -0.01505108  0.00017107 -0.00494339 -0.01075827
 14   H            X -0.00266835  0.00479694 -0.00116610  0.14419370 -0.23390087
                   Y  0.00627384 -0.01071286  0.00302731 -0.29185303  0.47407693
                   Z -0.00266703  0.00454310 -0.00095195  0.11310093 -0.18289853
 15   H            X -0.00026308 -0.00347503 -0.00002920 -0.22374961  0.36692476
                   Y -0.00033265 -0.00315169 -0.00010716 -0.20701671  0.34040867
                   Z  0.00003935  0.00301012  0.00005721  0.17150259 -0.28140598
 16   H            X -0.07249129  0.13384734 -0.01199019 -0.00142598  0.00374605
                   Y -0.07513488  0.13633442 -0.01216320 -0.00130770  0.00374554
                   Z  0.13660381 -0.24882051  0.02241197  0.00293521 -0.00788907
 17   H            X  0.08902437 -0.31968186  0.02573500 -0.00084132 -0.00313015
                   Y -0.17245979  0.62757078 -0.04962958  0.00189400  0.00621640
                   Z  0.08217274 -0.30077448  0.02395976 -0.00096425 -0.00285697
 18   H            X -0.28014952 -0.41444377  0.06438588 -0.00701238 -0.00883393
                   Y  0.06242720  0.08922846 -0.01510222  0.00110618  0.00170256
                   Z  0.06387667  0.09786725 -0.01487266  0.00118159  0.00171946
 19   H            X -0.40987069 -0.02368623  0.29113163 -0.00266467 -0.00274461
                   Y -0.37196836 -0.02317554  0.26107349 -0.00208090 -0.00222732
                   Z  0.46200942  0.02705981 -0.32668042  0.00264075  0.00270173
 20   H            X -0.12521191 -0.03649193 -0.21295921 -0.00020372  0.00013795
                   Y  0.44550048  0.12869853  0.75030862  0.00102470  0.00004585
                   Z -0.08256620 -0.02388159 -0.13795634  0.00000140  0.00013890

 TRANS. SAYVETZ    X -0.00000022 -0.00000044 -0.00000041  0.00000006  0.00000005
                   Y  0.00000027  0.00000005  0.00000038 -0.00000007  0.00000011
                   Z -0.00000022 -0.00000057  0.00000037  0.00000002  0.00000009
               TOTAL  0.00000041  0.00000073  0.00000067  0.00000010  0.00000016

   ROT. SAYVETZ    X -0.00011537  0.00026091 -0.00004918  0.00003373 -0.00122631
                   Y  0.00041551  0.00007575 -0.00002952 -0.00063864  0.00012661
                   Z -0.00017591 -0.00024384  0.00005276  0.00034813  0.00075068
               TOTAL  0.00046573  0.00036506  0.00007793  0.00072814  0.00144340

 REFERENCE ON SAYVETZ CONDITIONS - A. SAYVETZ, J.CHEM.PHYS., 7, 383-389(1939).

 NOTE - THE MODES J,K ARE ORTHONORMALIZED ACCORDING TO
 SUM ON I   M(I) * (X(I,J)*X(I,K) + Y(I,J)*Y(I,K) + Z(I,J)*Z(I,K)) = DELTA(J,K)

  MODE FREQ(CM**-1)  SYMMETRY  RED. MASS  IR INTENS.
     1    1105.034    A        9.337501    0.024507
     2       0.061    A        6.643354    0.000020
     3       0.008    A        6.702671    0.000000
     4       0.005    A        6.703427    0.000000
     5       1.650    A        4.841611    0.014710
     6      29.501    A        5.891498    0.016276
     7      35.812    A        4.148526    0.001066
     8     110.735    A        4.132868    0.028005
     9     202.450    A        3.552207    0.015162
    10     257.734    A        4.163961    0.029890
    11     373.630    A        5.303186    0.031090
    12     410.178    A        5.704918    0.169181
    13     456.159    A        1.990626    0.060343
    14     487.185    A        3.523073    0.073536
    15     497.133    A        4.519667    0.137151
    16     536.886    A        1.988641    0.234270
    17     570.916    A        2.521743    0.186636
    18     603.777    A        5.425921    0.018132
    19     674.650    A        5.938456    0.036230
    20     837.150    A        3.394299    0.044704
    21     852.859    A        4.080724    0.044632
    22     924.923    A        1.631617    1.209161
    23     935.612    A        1.774981    0.149185
    24     971.336    A        1.615375    0.877023
    25     995.138    A        1.365010    0.224752
    26    1023.976    A        1.418926    0.043242
    27    1084.996    A        1.839983    0.188566
    28    1122.433    A        2.888320    0.002581
    29    1171.609    A        1.971685    0.073765
    30    1201.748    A        1.125577    0.032743
    31    1209.689    A        1.271832    0.004302
    32    1228.755    A        1.503076    0.137621
    33    1260.349    A        1.270402    0.221331
    34    1278.537    A        1.151194    0.415509
    35    1305.197    A        1.232848    0.016349
    36    1328.611    A        1.261002    0.107571
    37    1355.718    A        1.266692    0.030080
    38    1358.662    A        1.122933    0.019535
    39    1419.225    A        1.832348    0.645105
    40    1471.292    A        1.330356    0.101013
    41    1484.855    A        1.781942    0.004814
    42    1600.510    A        1.604207    0.151311
    43    1639.632    A        1.714819    0.150547
    44    1668.152    A        1.505934    0.060462
    45    1727.112    A        2.566725    0.327369
    46    1758.630    A        1.892642    0.050087
    47    1811.293    A        1.277772    0.196585
    48    1863.180    A        2.593591    0.054740
    49    2004.901    A        7.008292    0.061519
    50    2075.456    A       10.553566    1.845763
    51    3634.336    A        1.062354    0.025298
    52    3638.711    A        1.064525    0.106400
    53    3689.503    A        1.090838    0.127920
    54    3697.308    A        1.093932    0.076860
    55    3699.056    A        1.096188    0.099472
    56    3704.979    A        1.091798    0.494271
    57    3715.887    A        1.100903    0.075540
    58    3736.102    A        1.105981    0.064504
    59    3785.880    A        1.117058    0.000622
    60    3787.669    A        1.117465    0.017021

     -------------------------------
     THERMOCHEMISTRY AT T=  298.15 K
     -------------------------------

 USING IDEAL GAS, RIGID ROTOR, HARMONIC NORMAL MODE APPROXIMATIONS.
 P=  1.01325E+05 PASCAL.
 ALL FREQUENCIES ARE SCALED BY   1.00000
 THE MOMENTS OF INERTIA ARE (IN AMU*BOHR**2)
            865.18669          1321.62075          1660.67034
 THE ROTATIONAL SYMMETRY NUMBER IS  1.0
 THE ROTATIONAL CONSTANTS ARE (IN GHZ)
      2.08405     1.36430     1.08576
   1 IMAGINARY FREQUENCY VIBRATION(S) IS(ARE) EXCLUDED
     FROM THE FOLLOWING THERMOCHEMICAL ANALYSIS.
      8 -     60 VIBRATIONAL MODES ARE USED IN THERMOCHEMISTRY.
 THE HARMONIC ZERO POINT ENERGY IS (SCALED BY   1.000)
        0.191918 HARTREE/MOLECULE    42121.199187 CM**-1/MOLECULE 
      120.430673 KCAL/MOL              503.881934 KJ/MOL

               Q               LN Q
 ELEC.     1.00000E+00       0.000000
 TRANS.    6.10192E+07      17.926699
 ROT.      4.93278E+05      13.108828
 VIB.      1.47797E+01       2.693252
 TOT.      4.44859E+14      33.728778

              E         H         G         CV        CP        S
           KJ/MOL    KJ/MOL    KJ/MOL   J/MOL-K   J/MOL-K   J/MOL-K
 ELEC.      0.000     0.000     0.000     0.000     0.000     0.000
 TRANS.     3.718     6.197   -44.439    12.472    20.786   169.836
 ROT.       3.718     3.718   -32.496    12.472    12.472   121.464
 VIB.     515.201   515.201   497.206    94.218    94.218    60.356
 TOTAL    522.637   525.116   420.270   119.161   127.475   351.655
 VIB. THERMAL CORRECTION E(T)-E(0) = H(T)-H(0) =     11318.584 J/MOL

              E         H         G         CV        CP        S
         KCAL/MOL  KCAL/MOL  KCAL/MOL CAL/MOL-K CAL/MOL-K CAL/MOL-K
 ELEC.      0.000     0.000     0.000     0.000     0.000     0.000
 TRANS.     0.889     1.481   -10.621     2.981     4.968    40.592
 ROT.       0.889     0.889    -7.767     2.981     2.981    29.031
 VIB.     123.136   123.136   118.835    22.519    22.519    14.425
 TOTAL    124.913   125.506   100.447    28.480    30.467    84.048
 VIB. THERMAL CORRECTION E(T)-E(0) = H(T)-H(0) =      2705.206 CAL/MOL

     *******************************************************
     * THIS IS NOT A STATIONARY POINT ON THE MOLECULAR PES *
     *     THE VIBRATIONAL ANALYSIS IS NOT VALID !!!       *
     *******************************************************
 ......END OF NORMAL COORDINATE ANALYSIS......
 STEP CPU TIME =     0.02 TOTAL CPU TIME =        186.4 (      3.1 MIN)
 TOTAL WALL CLOCK TIME=        186.9 SECONDS, CPU UTILIZATION IS    99.71%
               580000  WORDS OF DYNAMIC MEMORY USED
 EXECUTION OF GAMESS TERMINATED NORMALLY Sun Nov 14 21:47:40 2021
 DDI: 263640 bytes (0.3 MB / 0 MWords) used by master data server.

 ----------------------------------------
 CPU timing information for all processes
 ========================================
 0: 183.261 + 3.110 = 186.371
 ----------------------------------------
 ddikick.x: exited gracefully.
----- accounting info -----
Files used on the master node chemcompute-node-0.novalocal were:
-rw-r--r--. 1 chemcomp chemcomp     1348 Nov 14 21:44 /scratch/306530/342541.F05
-rw-rw-r--. 1 chemcomp chemcomp 18001600 Nov 14 21:47 /scratch/306530/342541.F08
-rw-rw-r--. 1 chemcomp chemcomp 85196800 Nov 14 21:47 /scratch/306530/342541.F10
-rw-rw-r--. 1 chemcomp chemcomp   878880 Nov 14 21:47 /scratch/306530/342541.F18
Sun Nov 14 21:47:44 UTC 2021
0.113u 0.114s 3:10.54 0.1%	0+0k 8+216io 0pf+0w
Finishing Up...
Looking for IR data...
Looking for Raman data...
vibramans not found
Looking for thermodynamics data...
Looking for UV-Vis data...
306530
