----- GAMESS execution script 'rungms' -----
This job is running on host chemcompute-node-0.novalocal
under operating system Linux at Tue Nov 16 07:03:29 UTC 2021
SLURM has assigned the following compute nodes to this run:
chemcompute-node-0
Available scratch disk space (Kbyte units) at beginning of the job is
Filesystem     1K-blocks     Used Available Use% Mounted on
/dev/sda1       62903276 16812916  46090360  27% /
GAMESS temporary binary files will be written to /scratch/307547
GAMESS supplementary output files will be written to /data/slurm/343588
Copying input file 343588.inp to your run's scratch directory...
The generated host list is
chemcompute-node-0.novalocal

 Distributed Data Interface kickoff program.
 Initiating 1 compute processes on 1 nodes to run the following command:
 /data/gamess-2019R1-ddi/gamess.00.x 343588 

          ******************************************************
          *         GAMESS VERSION = 30 JUN 2019 (R1)          *
          *             FROM IOWA STATE UNIVERSITY             *
          * M.W.SCHMIDT, K.K.BALDRIDGE, J.A.BOATZ, S.T.ELBERT, *
          *   M.S.GORDON, J.H.JENSEN, S.KOSEKI, N.MATSUNAGA,   *
          *          K.A.NGUYEN, S.J.SU, T.L.WINDUS,           *
          *       TOGETHER WITH M.DUPUIS, J.A.MONTGOMERY       *
          *         J.COMPUT.CHEM.  14, 1347-1363(1993)        *
          **************** 64 BIT LINUX VERSION ****************

  SINCE 1993, STUDENTS AND POSTDOCS WORKING AT IOWA STATE UNIVERSITY
  AND ALSO IN THEIR VARIOUS JOBS AFTER LEAVING ISU HAVE MADE IMPORTANT
  CONTRIBUTIONS TO THE CODE:
     IVANA ADAMOVIC, CHRISTINE AIKENS, YURI ALEXEEV, POOJA ARORA,
     ANDREY ASADCHEV, ROB BELL, PRADIPTA BANDYOPADHYAY, JONATHAN BENTZ,
     COLLEEN BERTONI, BRETT BODE, KURT BRORSEN, CALEB CARLIN, GALINA CHABAN,
     WEI CHEN, CHEOL HO CHOI, PAUL DAY, ALBERT DEFUSCO, NUWAN DESILVA,
     TIM DUDLEY, DMITRI FEDOROV, ALEX FINDLATER, GRAHAM FLETCHER, 
     MARK FREITAG, KURT GLAESEMANN, ANASTASIA GUNINA,
     DAN KEMP, GRANT MERRILL, NORIYUKI MINEZAWA, JONATHAN MULLIN,
     TAKESHI NAGATA, SEAN NEDD, HEATHER NETZLOFF, BOSILJKA NJEGIC, RYAN OLSON,
     MIKE PAK, BUU PHAM,
     SPENCER PRUITT, LUKE ROSKOP, JIM SHOEMAKER, LYUDMILA SLIPCHENKO,
     TONY SMITH, SAROM SOK LEANG, JIE SONG, TETSUYA TAKETSUGU, SIMON WEBB,
     PENG XU, SOOHAENG YOO, FEDERICO ZAHARIEV

  ADDITIONAL CODE HAS BEEN PROVIDED BY COLLABORATORS IN OTHER GROUPS:
     IOWA STATE UNIVERSITY:
          JOE IVANIC, AARON WEST, LAIMUTIS BYTAUTAS, KLAUS RUEDENBERG
     UNIVERSITY OF TOKYO: KIMIHIKO HIRAO, TAKAHITO NAKAJIMA,
          TAKAO TSUNEDA, MUNEAKI KAMIYA, SUSUMU YANAGISAWA,
          KIYOSHI YAGI, MAHITO CHIBA, SEIKEN TOKURA, NAOAKI KAWAKAMI
     UNIVERSITY OF AARHUS: FRANK JENSEN
     UNIVERSITY OF IOWA: VISVALDAS KAIRYS, HUI LI
     NATIONAL INST. OF STANDARDS AND TECHNOLOGY: WALT STEVENS, DAVID GARMER
     UNIVERSITY OF PISA: BENEDETTA MENNUCCI, JACOPO TOMASI
     UNIVERSITY OF MEMPHIS: HENRY KURTZ, PRAKASHAN KORAMBATH
     UNIVERSITY OF ALBERTA: TOBY ZENG, MARIUSZ KLOBUKOWSKI
     UNIVERSITY OF NEW ENGLAND: MARK SPACKMAN
     MIE UNIVERSITY: HIROAKI UMEDA
     NAT. INST. OF ADVANCED INDUSTRIAL SCIENCE AND TECHNOLOGY: KAZUO KITAURA
     MICHIGAN STATE UNIVERSITY:
          KAROL KOWALSKI, MARTA WLOCH, JEFFREY GOUR, JESSE LUTZ,
          WEI LI, JUN SHEN, J. EMILIANO DEUSTUA, PIOTR PIECUCH
     UNIVERSITY OF MINNESOTA:
          YINAN SHU
     UNIVERSITY OF SILESIA: MONIKA MUSIAL, STANISLAW KUCHARSKI
     FACULTES UNIVERSITAIRES NOTRE-DAME DE LA PAIX:
          OLIVIER QUINET, BENOIT CHAMPAGNE
     UNIVERSITY OF CALIFORNIA - SANTA BARBARA: BERNARD KIRTMAN
     INSTITUTE FOR MOLECULAR SCIENCE:
          KAZUYA ISHIMURA, MICHIO KATOUDA, AND SHIGERU NAGASE
     UNIVERSITY OF NOTRE DAME: ANNA POMOGAEVA, DAN CHIPMAN
     KYUSHU UNIVERSITY:
          HARUYUKI NAKANO,
          FENG LONG GU, JACEK KORCHOWIEC, MARCIN MAKOWSKI, AND YURIKO AOKI,
          HIROTOSHI MORI AND EISAKU MIYOSHI
     PENNSYLVANIA STATE UNIVERSITY:
          TZVETELIN IORDANOV, CHET SWALINA, JONATHAN SKONE,
          SHARON HAMMES-SCHIFFER
     WASEDA UNIVERSITY:
          MASATO KOBAYASHI, TOMOKO AKAMA, TSUGUKI TOUMA,
          TAKESHI YOSHIKAWA, YASUHIRO IKABATA, JUNJI SEINO,
          YUYA NAKAJIMA, HIROMI NAKAI
     NANJING UNIVERSITY: SHUHUA LI
     UNIVERSITY OF NEBRASKA:
          PEIFENG SU, DEJUN SI, NANDUN THELLAMUREGE, YALI WANG, HUI LI
     UNIVERSITY OF ZURICH: ROBERTO PEVERATI, KIM BALDRIDGE
     N. COPERNICUS UNIVERSITY AND JACKSON STATE UNIVERSITY:
          MARIA BARYSZ
     UNIVERSITY OF COPENHAGEN: Jimmy Kromann, CASPER STEINMANN
     TOKYO INSTITUTE OF TECHNOLOGY: HIROYA NAKATA
     NAGOYA UNIVERSITY: YOSHIO NISHIMOTO, STEPHAN IRLE
     MOSCOW STATE UNIVERSITY: VLADIMIR MIRONOV
     A.N.NESMEYANOV INSTITUTE OF ORGANOELEMENT COMPOUNDS OF RUSSIAN ACADEMY OF SCIENCES:
          IGOR S. GERASIMOV

 EXECUTION OF GAMESS BEGUN Tue Nov 16 07:03:29 2021

            ECHO OF THE FIRST FEW INPUT CARDS -
 INPUT CARD>!File created by the GAMESS Input Deck Generator Plugin for Avogadro            
 INPUT CARD> $BASIS GBASIS=STO NGAUSS=3 $END                                                
 INPUT CARD> $CONTRL SCFTYP=RHF RUNTYP=OPTIMIZE NZVAR=1 mult=1  ICHARG=0 $END               
 INPUT CARD> $STATPT hssend=.t. OPTTOL=0.0005 NSTEP=50 $END                                 
 INPUT CARD> $STATPT HESS=calc ihrep=5 $END                                                 
 INPUT CARD> $FORCE nvib=2 $END                                                             
 INPUT CARD> $ZMAT DLC=.t. auto=.t. nonvdw(1)=1,17,9,18 $END                                
 INPUT CARD> $ZMAT IFZMAT(1)=1,1,17,1,9,18 fvalue(1)=2.00,2.00 $END                         
 INPUT CARD>                                                                                
 INPUT CARD>                                                                                
 INPUT CARD> $DATA                                                                          
 INPUT CARD>Title                                                                           
 INPUT CARD>C1                                                                              
 INPUT CARD>C     6.0    -5.82012    -0.33552     0.62182                                   
 INPUT CARD>C     6.0    -6.72390     0.84740     0.30906                                   
 INPUT CARD>C     6.0    -5.70579     1.95965     0.05334                                   
 INPUT CARD>H     1.0    -7.43015     1.10801     1.12511                                   
 INPUT CARD>H     1.0    -7.29358     0.65075    -0.62483                                   
 INPUT CARD>C     6.0    -4.59498     1.21073    -0.66544                                   
 INPUT CARD>H     1.0    -5.30460     2.29887     1.03755                                   
 INPUT CARD>H     1.0    -6.10971     2.84299    -0.48495                                   
 INPUT CARD>C     6.0    -4.56315    -0.03709     0.15909                                   
 INPUT CARD>H     1.0    -3.63168     1.76075    -0.72020                                   
 INPUT CARD>H     1.0    -4.94618     0.95671    -1.69082                                   
 INPUT CARD>H     1.0    -5.94302    -1.02588     1.47450                                   
 INPUT CARD>C     6.0    -3.30285    -0.73834     0.58395                                   
 INPUT CARD>H     1.0    -3.53163    -1.59521     1.25270                                   
 INPUT CARD>H     1.0    -2.64651    -0.02519     1.12471                                   
 INPUT CARD>H     1.0    -2.76834    -1.11580    -0.31269                                   
 INPUT CARD>B     5.0    -6.25824    -1.84149    -0.74415                                   
 INPUT CARD>H     1.0    -5.13689    -1.47094    -1.12626                                   
 INPUT CARD>H     1.0    -7.16204    -1.63054    -1.47800                                   
 INPUT CARD>H     1.0    -6.30142    -2.88010    -0.17547                                   
 INPUT CARD> $END                                                                           
    1000000 WORDS OF MEMORY AVAILABLE

     BASIS OPTIONS
     -------------
     GBASIS=STO          IGAUSS=       3      POLAR=NONE    
     NDFUNC=       0     NFFUNC=       0     DIFFSP=       F
     NPFUNC=       0      DIFFS=       F     BASNAM=        


     RUN TITLE
     ---------
 Title                                                                           

 THE POINT GROUP OF THE MOLECULE IS C1      
 THE ORDER OF THE PRINCIPAL AXIS IS     0

 ATOM      ATOMIC                      COORDINATES (BOHR)
           CHARGE         X                   Y                   Z
 C           6.0   -10.9984320157       -0.6340408634        1.1750694137
 C           6.0   -12.7063285688        1.6013538020        0.5840387138
 C           6.0   -10.7823796435        3.7032015318        0.1007979842
 H           1.0   -14.0409475477        2.0938352917        2.1261496060
 H           1.0   -13.7828676695        1.2297391865       -1.1807574889
 C           6.0    -8.6832531191        2.2879479451       -1.2574992613
 H           1.0   -10.0242404745        4.3442343814        1.9606851986
 H           1.0   -11.5456777644        5.3724720858       -0.9164226177
 C           6.0    -8.6231031409       -0.0700899369        0.3006365074
 H           1.0    -6.8628800751        3.3273350329       -1.3609806564
 H           1.0    -9.3469248860        1.8079197497       -3.1951864946
 H           1.0   -11.2306793396       -1.9386320963        2.7864009689
 C           6.0    -6.2414814785       -1.3952602858        1.1035054905
 H           1.0    -6.6738129900       -3.0145097929        2.3672597448
 H           1.0    -5.0011787238       -0.0476021976        2.1253937157
 H           1.0    -5.2314040408       -2.1085562571       -0.5908984191
 B           5.0   -11.8263587654       -3.4799115091       -1.4062395938
 H           1.0    -9.7073145291       -2.7796735444       -2.1283227909
 H           1.0   -13.5342931131       -3.0812738120       -2.7930150099
 H           1.0   -11.9079571336       -5.4425998172       -0.3315902191

          INTERNUCLEAR DISTANCES (ANGS.)
          ------------------------------

                1 C          2 C          3 C          4 H          5 H     

   1 C       0.0000000    1.5211630 *  2.3672867 *  2.2201974 *  2.1674753 *
   2 C       1.5211630 *  0.0000000    1.5293923 *  1.1102451 *  1.1114662 *
   3 C       2.3672867 *  1.5293923 *  0.0000000    2.2016810 *  2.1666128 *
   4 H       2.2201974 *  1.1102451 *  2.2016810 *  0.0000000    1.8138435 *
   5 H       2.1674753 *  1.1114662 *  2.1666128 *  1.8138435 *  0.0000000  
   6 C       2.3556093 *  2.3693795 *  1.5203370 *  3.3548189    2.7563869 *
   7 H       2.7163584 *  2.1568207 *  1.1156581 *  2.4379863 *  3.0717826  
   8 H       3.3781249    2.2338444 *  1.1104941 *  2.7103525 *  2.4954019 *
   9 C       1.3722803 *  2.3395842 *  2.3029937 *  3.2348319    2.9228244 *
  10 H       3.3143077    3.3845840    2.2225791 *  4.2731268    3.8276242  
  11 H       2.7896117 *  2.6780136 *  2.1505790 *  3.7579862    2.5961959 *
  12 H       1.1039767 *  2.3403423 *  3.3150208    2.6243314 *  3.0070396  
  13 C       2.5495777 *  3.7807035    3.6516870    4.5537312    4.3950707  
  14 H       2.6873807 *  4.1288482    4.3361810    4.7457492    4.7667309  
  15 H       3.2281579    4.2487419    3.8008706    4.9160303    5.0112917  
  16 H       3.2856517    4.4595047    4.2686044    5.3614431    4.8678463  
  17 B       2.0798483 *  2.9251017 *  3.9229908    3.6833485    2.7013749 *
  18 H       2.1935737 *  3.1549080    3.6720636    4.1205208    3.0666451  
  19 H       2.8083928 *  3.0863792    4.1659489    3.7878385    2.4391568 *
  20 H       2.7096510 *  3.7825276    4.8816298    4.3440259    3.6950247  

                6 C          7 H          8 H          9 C         10 H     

   1 C       2.3556093 *  2.7163584 *  3.3781249    1.3722803 *  3.3143077  
   2 C       2.3693795 *  2.1568207 *  2.2338444 *  2.3395842 *  3.3845840  
   3 C       1.5203370 *  1.1156581 *  1.1104941 *  2.3029937 *  2.2225791 *
   4 H       3.3548189    2.4379863 *  2.7103525 *  3.2348319    4.2731268  
   5 H       2.7563869 *  3.0717826    2.4954019 *  2.9228244 *  3.8276242  
   6 C       0.0000000    2.1419113 *  2.2341120 *  1.4959671 *  1.1106158 *
   7 H       2.1419113 *  0.0000000    1.8061769 *  2.6034879 *  2.4855421 *
   8 H       2.2341120 *  1.8061769 *  0.0000000    3.3318908    2.7142621 *
   9 C       1.4959671 *  2.6034879 *  3.3318908    0.0000000    2.2074909 *
  10 H       1.1106158 *  2.4855421 *  2.7142621 *  2.2074909 *  0.0000000  
  11 H       1.1132258 *  3.0616762    2.5230887 *  2.1346001 *  1.8211243 *
  12 H       3.3762375    3.4135711    4.3399752    2.1475685 *  4.2337108  
  13 C       2.6513108 *  3.6657060    4.6740705    1.5035337 *  2.8380252 *
  14 H       3.5613584    4.2841068    5.4188138    2.1651222 *  3.8942023  
  15 H       2.9203888 *  3.5318967    4.7761089    2.1461762 *  2.7502426 *
  16 H       2.9788904 *  4.4627048    5.1832852    2.1465168 *  3.0308349  
  17 B       3.4768773    4.6072188    4.6939960    2.6353429 *  4.4581974  
  18 H       2.7744144 *  4.3499043    4.4685176    2.0092855 *  3.5880861  
  19 H       3.9144433    5.0217863    4.7017037    3.4602566    4.9536401  
  20 H       4.4594729    5.4117278    5.7346569    3.3490624    5.3816105  

               11 H         12 H         13 C         14 H         15 H     

   1 C       2.7896117 *  1.1039767 *  2.5495777 *  2.6873807 *  3.2281579  
   2 C       2.6780136 *  2.3403423 *  3.7807035    4.1288482    4.2487419  
   3 C       2.1505790 *  3.3150208    3.6516870    4.3361810    3.8008706  
   4 H       3.7579862    2.6243314 *  4.5537312    4.7457492    4.9160303  
   5 H       2.5961959 *  3.0070396    4.3950707    4.7667309    5.0112917  
   6 C       1.1132258 *  3.3762375    2.6513108 *  3.5613584    2.9203888 *
   7 H       3.0616762    3.4135711    3.6657060    4.2841068    3.5318967  
   8 H       2.5230887 *  4.3399752    4.6740705    5.4188138    4.7761089  
   9 C       2.1346001 *  2.1475685 *  1.5035337 *  2.1651222 *  2.1461762 *
  10 H       1.8211243 *  4.2337108    2.8380252 *  3.8942023    2.7502426 *
  11 H       0.0000000    3.8656958    3.2784610    4.1445817    3.7656100  
  12 H       3.8656958    0.0000000    2.8011170 *  2.4875960 *  3.4627607  
  13 C       3.2784610    2.8011170 *  0.0000000    1.1107624 *  1.1098588 *
  14 H       4.1445817    2.4875960 *  1.1107624 *  0.0000000    1.8068707 *
  15 H       3.7656100    3.4627607    1.1098588 *  1.8068707 *  0.0000000  
  16 H       3.3071932    3.6442732    1.1100181 *  1.8063475 *  1.8084224 *
  17 B       3.2322761    2.3847413 *  3.4227357    3.3885787    4.4537823  
  18 H       2.4997165 *  2.7589629 *  2.6125129 *  2.8725865 *  3.6550036  
  19 H       3.4130910    3.2509813    4.4655354    4.5428898    5.4535547  
  20 H       4.3421276    2.5077846 *  3.7623499    3.3708083    4.8165700  

               16 H         17 B         18 H         19 H         20 H     

   1 C       3.2856517    2.0798483 *  2.1935737 *  2.8083928 *  2.7096510 *
   2 C       4.4595047    2.9251017 *  3.1549080    3.0863792    3.7825276  
   3 C       4.2686044    3.9229908    3.6720636    4.1659489    4.8816298  
   4 H       5.3614431    3.6833485    4.1205208    3.7878385    4.3440259  
   5 H       4.8678463    2.7013749 *  3.0666451    2.4391568 *  3.6950247  
   6 C       2.9788904 *  3.4768773    2.7744144 *  3.9144433    4.4594729  
   7 H       4.4627048    4.6072188    4.3499043    5.0217863    5.4117278  
   8 H       5.1832852    4.6939960    4.4685176    4.7017037    5.7346569  
   9 C       2.1465168 *  2.6353429 *  2.0092855 *  3.4602566    3.3490624  
  10 H       3.0308349    4.4581974    3.5880861    4.9536401    5.3816105  
  11 H       3.3071932    3.2322761    2.4997165 *  3.4130910    4.3421276  
  12 H       3.6442732    2.3847413 *  2.7589629 *  3.2509813    2.5077846 *
  13 C       1.1100181 *  3.4227357    2.6125129 *  4.4655354    3.7623499  
  14 H       1.8063475 *  3.3885787    2.8725865 *  4.5428898    3.3708083  
  15 H       1.8084224 *  4.4537823    3.6550036    5.4535547    4.8165700  
  16 H       0.0000000    3.5905690    2.5294366 *  4.5746589    3.9514856  
  17 B       3.5905690    0.0000000    1.2412660 *  1.1831695 *  1.1848933 *
  18 H       2.5294366 *  1.2412660 *  0.0000000    2.0616561 *  2.0605494 *
  19 H       4.5746589    1.1831695 *  2.0616561 *  0.0000000    1.9996628 *
  20 H       3.9514856    1.1848933 *  2.0605494 *  1.9996628 *  0.0000000  

  * ... LESS THAN  3.000


     ATOMIC BASIS SET
     ----------------
 THE CONTRACTED PRIMITIVE FUNCTIONS HAVE BEEN UNNORMALIZED
 THE CONTRACTED BASIS FUNCTIONS ARE NOW NORMALIZED TO UNITY

  SHELL TYPE  PRIMITIVE        EXPONENT          CONTRACTION COEFFICIENT(S)

 C         

      1   S       1            71.6168373    0.154328967295
      1   S       2            13.0450963    0.535328142282
      1   S       3             3.5305122    0.444634542185

      2   L       4             2.9412494   -0.099967229187    0.155916274999
      2   L       5             0.6834831    0.399512826089    0.607683718598
      2   L       6             0.2222899    0.700115468880    0.391957393099

 C         

      3   S       7            71.6168373    0.154328967295
      3   S       8            13.0450963    0.535328142282
      3   S       9             3.5305122    0.444634542185

      4   L      10             2.9412494   -0.099967229187    0.155916274999
      4   L      11             0.6834831    0.399512826089    0.607683718598
      4   L      12             0.2222899    0.700115468880    0.391957393099

 C         

      5   S      13            71.6168373    0.154328967295
      5   S      14            13.0450963    0.535328142282
      5   S      15             3.5305122    0.444634542185

      6   L      16             2.9412494   -0.099967229187    0.155916274999
      6   L      17             0.6834831    0.399512826089    0.607683718598
      6   L      18             0.2222899    0.700115468880    0.391957393099

 H         

      7   S      19             3.4252509    0.154328967295
      7   S      20             0.6239137    0.535328142282
      7   S      21             0.1688554    0.444634542185

 H         

      8   S      22             3.4252509    0.154328967295
      8   S      23             0.6239137    0.535328142282
      8   S      24             0.1688554    0.444634542185

 C         

      9   S      25            71.6168373    0.154328967295
      9   S      26            13.0450963    0.535328142282
      9   S      27             3.5305122    0.444634542185

     10   L      28             2.9412494   -0.099967229187    0.155916274999
     10   L      29             0.6834831    0.399512826089    0.607683718598
     10   L      30             0.2222899    0.700115468880    0.391957393099

 H         

     11   S      31             3.4252509    0.154328967295
     11   S      32             0.6239137    0.535328142282
     11   S      33             0.1688554    0.444634542185

 H         

     12   S      34             3.4252509    0.154328967295
     12   S      35             0.6239137    0.535328142282
     12   S      36             0.1688554    0.444634542185

 C         

     13   S      37            71.6168373    0.154328967295
     13   S      38            13.0450963    0.535328142282
     13   S      39             3.5305122    0.444634542185

     14   L      40             2.9412494   -0.099967229187    0.155916274999
     14   L      41             0.6834831    0.399512826089    0.607683718598
     14   L      42             0.2222899    0.700115468880    0.391957393099

 H         

     15   S      43             3.4252509    0.154328967295
     15   S      44             0.6239137    0.535328142282
     15   S      45             0.1688554    0.444634542185

 H         

     16   S      46             3.4252509    0.154328967295
     16   S      47             0.6239137    0.535328142282
     16   S      48             0.1688554    0.444634542185

 H         

     17   S      49             3.4252509    0.154328967295
     17   S      50             0.6239137    0.535328142282
     17   S      51             0.1688554    0.444634542185

 C         

     18   S      52            71.6168373    0.154328967295
     18   S      53            13.0450963    0.535328142282
     18   S      54             3.5305122    0.444634542185

     19   L      55             2.9412494   -0.099967229187    0.155916274999
     19   L      56             0.6834831    0.399512826089    0.607683718598
     19   L      57             0.2222899    0.700115468880    0.391957393099

 H         

     20   S      58             3.4252509    0.154328967295
     20   S      59             0.6239137    0.535328142282
     20   S      60             0.1688554    0.444634542185

 H         

     21   S      61             3.4252509    0.154328967295
     21   S      62             0.6239137    0.535328142282
     21   S      63             0.1688554    0.444634542185

 H         

     22   S      64             3.4252509    0.154328967295
     22   S      65             0.6239137    0.535328142282
     22   S      66             0.1688554    0.444634542185

 B         

     23   S      67            48.7911132    0.154328967295
     23   S      68             8.8873622    0.535328142282
     23   S      69             2.4052670    0.444634542185

     24   L      70             2.2369561   -0.099967229187    0.155916274999
     24   L      71             0.5198205    0.399512826089    0.607683718598
     24   L      72             0.1690618    0.700115468880    0.391957393099

 H         

     25   S      73             3.4252509    0.154328967295
     25   S      74             0.6239137    0.535328142282
     25   S      75             0.1688554    0.444634542185

 H         

     26   S      76             3.4252509    0.154328967295
     26   S      77             0.6239137    0.535328142282
     26   S      78             0.1688554    0.444634542185

 H         

     27   S      79             3.4252509    0.154328967295
     27   S      80             0.6239137    0.535328142282
     27   S      81             0.1688554    0.444634542185

 TOTAL NUMBER OF BASIS SET SHELLS             =   27
 NUMBER OF CARTESIAN GAUSSIAN BASIS FUNCTIONS =   48
 NUMBER OF ELECTRONS                          =   54
 CHARGE OF MOLECULE                           =    0
 SPIN MULTIPLICITY                            =    1
 NUMBER OF OCCUPIED ORBITALS (ALPHA)          =   27
 NUMBER OF OCCUPIED ORBITALS (BETA )          =   27
 TOTAL NUMBER OF ATOMS                        =   20
 THE NUCLEAR REPULSION ENERGY IS      303.9105347000

     $CONTRL OPTIONS
     ---------------
 SCFTYP=RHF          RUNTYP=OPTIMIZE     EXETYP=RUN     
 MPLEVL=       0     CITYP =NONE         CCTYP =NONE         VBTYP =NONE    
 DFTTYP=NONE         TDDFT =NONE    
 MULT  =       1     ICHARG=       0     NZVAR =       1     COORD =UNIQUE  
 PP    =NONE         RELWFN=NONE         LOCAL =NONE         NUMGRD=       F
 ISPHER=      -1     NOSYM =       0     MAXIT =      30     UNITS =ANGS    
 PLTORB=       F     MOLPLT=       F     AIMPAC=       F     FRIEND=        
 NPRINT=       7     IREST =       0     GEOM  =INPUT   
 NORMF =       0     NORMP =       0     ITOL  =      20     ICUT  =       9
 INTTYP=BEST         GRDTYP=BEST         QMTTOL= 1.0E-06

     $SYSTEM OPTIONS
     ---------------
  REPLICATED MEMORY=     1000000 WORDS (ON EVERY NODE).
 DISTRIBUTED MEMDDI=           0 MILLION WORDS IN AGGREGATE,
 MEMDDI DISTRIBUTED OVER   1 PROCESSORS IS           0 WORDS/PROCESSOR.
 TOTAL MEMORY REQUESTED ON EACH PROCESSOR=     1000000 WORDS.
 TIMLIM=      525600.00 MINUTES, OR     365.0 DAYS.
 PARALL= F  BALTYP=  DLB     KDIAG=    0  COREFL= F
 MXSEQ2=     300 MXSEQ3=     150  mem10=         0

          ----------------
          PROPERTIES INPUT
          ----------------

     MOMENTS            FIELD           POTENTIAL          DENSITY
 IEMOM =       1   IEFLD =       0   IEPOT =       0   IEDEN =       0
 WHERE =COMASS     WHERE =NUCLEI     WHERE =NUCLEI     WHERE =NUCLEI  
 OUTPUT=BOTH       OUTPUT=BOTH       OUTPUT=BOTH       OUTPUT=BOTH    
 IEMINT=       0   IEFINT=       0                     IEDINT=       0
                                                       MORB  =       0
          EXTRAPOLATION IN EFFECT
          SOSCF IN EFFECT
 ORBITAL PRINTING OPTION: NPREO=     1    48     2     1

     -------------------------------
     INTEGRAL TRANSFORMATION OPTIONS
     -------------------------------
     NWORD  =            0
     CUTOFF = 1.0E-09     MPTRAN =       0
     DIRTRF =       F     AOINTS =DUP     

          ----------------------
          INTEGRAL INPUT OPTIONS
          ----------------------
 NOPK  =       1 NORDER=       0 SCHWRZ=       T


 -----------------------------------------------
  STATISTICS ON AUTOMATIC COORDINATE GENERATION 
 -----------------------------------------------
  NUMBER OF USER SPECIFIED BONDS                             2
  NUMBER OF BONDS                                           21
  NUMBER OF ANGLES                                          43
  NUMBER OF TORSIONS                                        69
  NUMBER OF EXTRA COORD.                                     0
  NUMBER OF EXTRA COORD. FOR CONSTRAINTS                     0
  NUMBER OF CONSTRAINED COORD.                               2

  TOTAL NUMBER OF PRIMITIVES                               133
 -----------------------------------------------

   --- ENCODED Z MATRIX ---
 COORD  TYPE   I   J   K   L   M   N
    1      1    1  17
    2      1    9  18
    3      1    1   2
    4      1    1  12
    5      1    1   9
    6      1    2   4
    7      1    2   3
    8      1    2   5
    9      1    3   8
   10      1    3   7
   11      1    3   6
   12      1    6  11
   13      1    6  10
   14      1    6   9
   15      1    9  13
   16      1   13  15
   17      1   13  14
   18      1   13  16
   19      1   17  20
   20      1   17  19
   21      1   17  18
   22      2    1   2   4
   23      2    1  17  18
   24      2    1   9  13
   25      2    1   9   6
   26      2    1  17  20
   27      2    1  17  19
   28      2    1   2   5
   29      2    1   2   3
   30      2    1   9  18
   31      2    2   1  12
   32      2    2   1   9
   33      2    2   3   6
   34      2    2   1  17
   35      2    2   3   8
   36      2    2   3   7
   37      2    3   6  10
   38      2    3   6  11
   39      2    3   2   5
   40      2    3   2   4
   41      2    3   6   9
   42      2    4   2   5
   43      2    6   9  13
   44      2    6   3   7
   45      2    6   3   8
   46      2    6   9  18
   47      2    7   3   8
   48      2    9   6  10
   49      2    9   6  11
   50      2    9   1  17
   51      2    9   1  12
   52      2    9  18  17
   53      2    9  13  16
   54      2    9  13  14
   55      2    9  13  15
   56      2   10   6  11
   57      2   12   1  17
   58      2   13   9  18
   59      2   14  13  16
   60      2   14  13  15
   61      2   15  13  16
   62      2   18  17  19
   63      2   18  17  20
   64      2   19  17  20
   65      3    1  17  18   9
   66      3    1   9  13  16
   67      3    1   2   3   8
   68      3    1   9  13  14
   69      3    1   9  13  15
   70      3    1   9  18  17
   71      3    1   9   6  10
   72      3    1   9   6  11
   73      3    1   9   6   3
   74      3    1   2   3   6
   75      3    1   2   3   7
   76      3    2   1   9   6
   77      3    2   3   6   9
   78      3    2   3   6  10
   79      3    2   3   6  11
   80      3    2   1  17  19
   81      3    2   1  17  20
   82      3    2   1   9  18
   83      3    2   1   9  13
   84      3    2   1  17  18
   85      3    3   2   1   9
   86      3    3   2   1  17
   87      3    3   2   1  12
   88      3    3   6   9  18
   89      3    3   6   9  13
   90      3    4   2   3   8
   91      3    4   2   1   9
   92      3    4   2   3   6
   93      3    4   2   1  12
   94      3    4   2   1  17
   95      3    4   2   3   7
   96      3    5   2   3   8
   97      3    5   2   1   9
   98      3    5   2   1  12
   99      3    5   2   1  17
  100      3    5   2   3   6
  101      3    5   2   3   7
  102      3    6   9   1  17
  103      3    6   9  18  17
  104      3    6   9  13  16
  105      3    6   9  13  14
  106      3    6   9  13  15
  107      3    6   9   1  12
  108      3    7   3   6   9
  109      3    7   3   6  11
  110      3    7   3   6  10
  111      3    8   3   6   9
  112      3    8   3   6  11
  113      3    8   3   6  10
  114      3    9  18  17  19
  115      3    9  18  17  20
  116      3    9   1  17  19
  117      3    9   1  17  18
  118      3    9   1  17  20
  119      3   10   6   9  18
  120      3   10   6   9  13
  121      3   11   6   9  18
  122      3   11   6   9  13
  123      3   12   1  17  19
  124      3   12   1  17  20
  125      3   12   1   9  13
  126      3   12   1  17  18
  127      3   12   1   9  18
  128      3   13   9  18  17
  129      3   13   9   1  17
  130      3   14  13   9  18
  131      3   15  13   9  18
  132      3   16  13   9  18
  133      3   17   1   9  18

          INDEP./SYM. INTERNAL COORDINATES
          --------------------------------
 CRD  1=   1.0000 (  1)
 CRD  2=   1.0000 (  2)
 CRD  3=   0.2946 (  3)  0.1574 (  5)  0.1556 ( 14)  0.3774 ( 15)  0.1497 ( 24)
          -0.1912 ( 25) -0.1157 ( 33) -0.1292 ( 38)  0.2297 ( 41) -0.1277 ( 53)
           0.1509 ( 54)  0.2791 ( 55) -0.1505 ( 58) -0.1397 ( 60)  0.1583 ( 83)
          -0.1272 ( 89)  0.1568 (102)  0.1466 (103)  0.1074 (114)  0.1079 (125)
           0.1254 (128)  0.2218 (129)
 CRD  4=   0.1614 (  3)  0.1659 (  5)  0.2139 ( 14)  0.3762 ( 15)  0.1093 ( 27)
           0.1394 ( 28)  0.1562 ( 34) -0.1045 ( 44)  0.3862 ( 53) -0.1558 ( 55)
          -0.1637 ( 59) -0.1109 ( 61)  0.1286 ( 73) -0.1636 ( 76) -0.1604 ( 82)
          -0.2307 ( 83)  0.1168 ( 85)  0.1979 ( 89)  0.1214 ( 91) -0.1296 (105)
           0.1248 (114)  0.1164 (122)
 CRD  5=   0.1236 ( 13)  0.2786 ( 14)  0.1106 ( 15)  0.2550 ( 21) -0.1445 ( 23)
          -0.1012 ( 26) -0.1544 ( 36) -0.1662 ( 41)  0.1692 ( 46)  0.1668 ( 49)
           0.1542 ( 50)  0.1038 ( 53) -0.1382 ( 57)  0.1342 ( 62)  0.1101 ( 67)
          -0.1019 ( 71) -0.1140 ( 73)  0.1227 ( 74)  0.1258 ( 76)  0.1375 ( 79)
          -0.1121 ( 85) -0.2582 ( 86) -0.1444 ( 88) -0.1688 ( 94) -0.1415 ( 99)
           0.1397 (102)  0.1857 (115) -0.1324 (119)  0.1184 (130)  0.1307 (131)
           0.1040 (132)
 CRD  6=  -0.1751 (  5) -0.1035 (  6)  0.1157 (  9) -0.1318 ( 11)  0.2371 ( 14)
          -0.1148 ( 15) -0.1299 ( 23)  0.1431 ( 26) -0.1752 ( 28)  0.3349 ( 29)
           0.1294 ( 31) -0.1882 ( 32) -0.2991 ( 33)  0.1498 ( 35)  0.1147 ( 36)
          -0.1804 ( 37) -0.1494 ( 40)  0.1868 ( 41)  0.1376 ( 42) -0.1196 ( 47)
          -0.1361 ( 49)  0.1381 ( 50) -0.1465 ( 55) -0.1483 ( 64)  0.1104 ( 77)
          -0.1278 ( 84)  0.1337 (108) -0.1117 (115)
 CRD  7=   0.2530 (  3)  0.1057 (  5)  0.1525 (  6)  0.4051 (  7)  0.1002 ( 16)
           0.1212 ( 22)  0.1277 ( 25)  0.2482 ( 26) -0.1174 ( 29) -0.2061 ( 54)
           0.3340 ( 55)  0.1065 ( 59) -0.1120 ( 61) -0.1618 ( 64) -0.1148 ( 67)
          -0.1037 ( 74)  0.1088 ( 97) -0.1372 (103) -0.2349 (115)
 CRD  8=   0.3262 (  3) -0.1393 (  5) -0.2412 ( 14)  0.1126 ( 18)  0.1577 ( 22)
          -0.1328 ( 27)  0.1164 ( 31)  0.1855 ( 41) -0.1635 ( 48) -0.1075 ( 51)
           0.4519 ( 53) -0.1478 ( 54) -0.3176 ( 55) -0.1237 ( 59)  0.1837 ( 60)
           0.1011 ( 76) -0.1023 ( 80) -0.1047 (114) -0.1199 (116)
 CRD  9=   0.1247 (  3)  0.2949 (  7)  0.1008 ( 13)  0.2389 ( 14) -0.1166 ( 16)
           0.1777 ( 17) -0.1010 ( 27) -0.2129 ( 53)  0.5502 ( 54) -0.3270 ( 55)
          -0.1478 ( 59)  0.2273 ( 61) -0.1067 (128)
 CRD 10=  -0.1143 (  3)  0.1229 (  5)  0.1191 (  7)  0.1568 (  9)  0.6426 ( 11)
           0.1501 ( 13) -0.1054 ( 28)  0.1199 ( 29) -0.1376 ( 33)  0.1483 ( 37)
           0.1312 ( 44)  0.1697 ( 45) -0.1080 ( 47)  0.1160 ( 53) -0.1543 ( 55)
          -0.1092 ( 75) -0.1268 ( 95)  0.1085 ( 96)  0.1027 (119) -0.1127 (122)
 CRD 11=   0.2425 (  3) -0.1513 (  5) -0.4915 (  7)  0.1981 ( 11)  0.1506 ( 22)
           0.1702 ( 26)  0.1016 ( 31) -0.1754 ( 35) -0.1314 ( 36) -0.1990 ( 40)
           0.1084 ( 45) -0.1883 ( 53)  0.1332 ( 54)  0.1474 ( 90)  0.1697 ( 91)
           0.1050 ( 94) -0.1240 ( 98) -0.1453 (101) -0.1141 (109)  0.1007 (111)
           0.1082 (113) -0.1524 (115)
 CRD 12=   0.1081 (  4)  0.1559 (  5) -0.1331 (  7) -0.1323 (  8) -0.1222 (  9)
          -0.1548 ( 11)  0.1350 ( 14)  0.1584 ( 22)  0.1667 ( 26) -0.1651 ( 28)
           0.1462 ( 33) -0.1749 ( 36) -0.1503 ( 38) -0.1085 ( 40)  0.1320 ( 44)
          -0.2319 ( 45)  0.1101 ( 49)  0.1707 ( 53) -0.1901 ( 55)  0.1219 ( 57)
           0.1188 ( 60) -0.1040 ( 62) -0.1472 ( 67) -0.1187 ( 73) -0.1392 ( 75)
           0.1079 ( 79)  0.1078 ( 86) -0.1048 ( 88) -0.1161 ( 89)  0.1495 ( 92)
           0.1508 ( 94)  0.1308 ( 99)  0.1607 (100)  0.1154 (107) -0.2355 (115)
           0.1268 (116)  0.1106 (125)
 CRD 13=  -0.1794 (  3) -0.2563 (  4) -0.2238 (  5) -0.1588 ( 13) -0.2191 ( 14)
           0.1818 ( 15)  0.1732 ( 20) -0.1189 ( 21)  0.2831 ( 27) -0.1094 ( 28)
          -0.1018 ( 33)  0.1594 ( 35)  0.1678 ( 39)  0.1163 ( 44) -0.1716 ( 48)
           0.1092 ( 49)  0.1803 ( 54) -0.1411 ( 60) -0.1251 ( 64)  0.1143 ( 78)
          -0.1064 ( 86) -0.1235 ( 87) -0.1454 (108) -0.1385 (111)  0.3007 (114)
           0.1005 (122)
 CRD 14=  -0.1163 (  6)  0.1063 ( 10)  0.1957 ( 12) -0.1070 ( 13)  0.1007 ( 19)
          -0.1892 ( 20) -0.1906 ( 21) -0.1092 ( 22)  0.2489 ( 26) -0.2643 ( 27)
          -0.1029 ( 33)  0.1159 ( 35)  0.1323 ( 44) -0.1424 ( 48)  0.2061 ( 49)
           0.1033 ( 67)  0.1058 ( 72)  0.1614 ( 74) -0.1323 ( 77) -0.1192 ( 85)
          -0.1089 ( 91) -0.1084 ( 97) -0.1740 (108) -0.1780 (111) -0.2791 (114)
          -0.2806 (115)
 CRD 15=   0.1680 (  3)  0.4161 (  4) -0.1516 (  8)  0.2665 ( 12)  0.1012 ( 14)
          -0.1768 ( 19) -0.2975 ( 26) -0.1119 ( 32)  0.1399 ( 35) -0.1488 ( 36)
           0.1461 ( 44) -0.1318 ( 45)  0.1056 ( 49)  0.1282 ( 64)  0.1056 ( 79)
          -0.1101 (107) -0.1088 (108)  0.2771 (115) -0.1185 (125) -0.1052 (129)
 CRD 16=   0.1181 (  3)  0.2100 (  4)  0.2221 (  8) -0.2409 (  9)  0.3104 ( 10)
           0.1078 ( 13) -0.1624 ( 19)  0.1321 ( 20) -0.1137 ( 21)  0.1565 ( 27)
           0.1138 ( 31) -0.1494 ( 35)  0.1700 ( 36)  0.1354 ( 48) -0.1742 ( 66)
          -0.1640 ( 68) -0.1693 ( 69)  0.1140 ( 74) -0.1014 ( 77) -0.2206 ( 78)
          -0.1883 ( 79)  0.1648 ( 92) -0.1205 ( 97) -0.1247 (104) -0.1145 (105)
          -0.1198 (106)  0.1032 (108)  0.1385 (114) -0.1092 (130) -0.1145 (131)
          -0.1194 (132)
 CRD 17=  -0.2185 (  4) -0.2346 (  9)  0.4117 ( 10)  0.2483 ( 12)  0.1162 ( 19)
           0.1208 ( 21)  0.1886 ( 22) -0.1209 ( 27) -0.1739 ( 28) -0.1041 ( 37)
           0.1503 ( 38)  0.1618 ( 39) -0.1342 ( 40)  0.1573 ( 44) -0.1128 ( 45)
           0.1321 ( 48)  0.1292 ( 66)  0.1175 ( 68)  0.1304 ( 69) -0.1267 ( 75)
          -0.1542 ( 78) -0.1285 ( 79)  0.1055 ( 88)  0.2001 ( 92)  0.2013 (100)
           0.1010 (104)  0.1022 (106) -0.1023 (114)
 CRD 18=  -0.1460 (  3) -0.1128 (  4) -0.3186 (  8) -0.2724 ( 16) -0.2402 ( 17)
          -0.2104 ( 18)  0.1190 ( 38) -0.1534 ( 39) -0.1037 ( 45)  0.1529 ( 53)
           0.1481 ( 54)  0.1309 ( 55) -0.1069 ( 57) -0.1651 ( 59) -0.1342 ( 60)
          -0.1405 ( 61) -0.1081 ( 66) -0.1122 ( 67) -0.1073 ( 69) -0.1293 ( 80)
          -0.1611 ( 81)  0.1086 ( 87) -0.1150 ( 97) -0.1107 ( 99) -0.1044 (103)
          -0.1181 (118) -0.1038 (122) -0.1135 (123) -0.1453 (124) -0.1063 (127)
 CRD 19=  -0.1678 (  4)  0.1909 (  6) -0.1195 (  8) -0.1664 ( 13)  0.2575 ( 16)
           0.2089 ( 17)  0.1824 ( 18)  0.1038 ( 35) -0.2029 ( 37) -0.1480 ( 53)
          -0.1240 ( 54)  0.1489 ( 59)  0.1037 ( 61) -0.1294 ( 66) -0.1401 ( 68)
          -0.1299 ( 69) -0.1807 ( 71) -0.1214 ( 72)  0.1238 ( 81) -0.2088 (104)
          -0.2195 (105) -0.2093 (106) -0.1093 (114) -0.1540 (119) -0.1153 (120)
          -0.1732 (130) -0.1630 (131) -0.1625 (132)
 CRD 20=   0.1924 (  4) -0.1699 (  6)  0.2402 (  8)  0.1491 (  9) -0.1445 ( 13)
          -0.1206 ( 15) -0.2788 ( 16) -0.3112 ( 17) -0.2880 ( 18) -0.1424 ( 37)
           0.1002 ( 38)  0.1659 ( 39) -0.1543 ( 40)  0.1409 ( 55) -0.1130 ( 60)
          -0.1162 ( 61) -0.1542 ( 71) -0.1310 ( 72)  0.1371 ( 91)  0.1568 ( 94)
           0.1500 ( 97)  0.1698 ( 99) -0.1021 (105) -0.1001 (106)  0.1047 (118)
           0.1077 (124)
 CRD 21=  -0.1520 (  3)  0.2043 (  4) -0.3774 (  6)  0.1064 (  9)  0.1163 ( 12)
          -0.1566 ( 13)  0.1776 ( 15)  0.1238 ( 16)  0.2094 ( 17)  0.3037 ( 18)
          -0.2691 ( 19)  0.1790 ( 38) -0.1134 ( 63) -0.1230 ( 71) -0.1682 ( 72)
          -0.1624 ( 80) -0.2011 ( 81)  0.1072 ( 94)  0.1014 ( 99) -0.1037 (116)
          -0.1423 (118) -0.1312 (120) -0.1443 (121) -0.1765 (122) -0.1429 (123)
          -0.1816 (124)
 CRD 22=   0.1439 (  6)  0.1177 ( 12) -0.4766 ( 19) -0.6245 ( 20)  0.1013 ( 26)
           0.1405 ( 27)  0.1536 ( 63) -0.2768 ( 64)  0.1823 ( 81)  0.1302 (114)
           0.1593 (118)  0.1933 (124)
 CRD 23=   0.2673 ( 12) -0.1552 ( 13) -0.2131 ( 16)  0.1305 ( 18)  0.2188 ( 19)
           0.3026 ( 20)  0.1556 ( 21) -0.1360 ( 22)  0.1479 ( 28) -0.1170 ( 39)
           0.1555 ( 40)  0.1015 ( 57) -0.1318 ( 64) -0.1015 ( 72) -0.1296 ( 90)
          -0.1320 ( 91) -0.1727 ( 93) -0.1289 ( 94) -0.1329 ( 95) -0.1224 ( 96)
          -0.1326 ( 97) -0.1733 ( 98) -0.1295 ( 99) -0.1257 (101)  0.1002 (105)
           0.1025 (106) -0.1170 (115) -0.1263 (120) -0.1480 (122)  0.1205 (125)
           0.1121 (127)
 CRD 24=  -0.1019 ( 12) -0.1052 ( 13)  0.3430 ( 16) -0.6145 ( 17)  0.2833 ( 18)
          -0.1805 ( 59) -0.1606 ( 60)  0.3429 ( 61) -0.1818 ( 66)  0.1787 ( 69)
          -0.1850 (104)  0.1755 (106)  0.1802 (131) -0.1803 (132)
 CRD 25=   0.5107 ( 16) -0.5328 ( 18) -0.2934 ( 59)  0.3008 ( 60)  0.2185 ( 68)
          -0.1060 ( 69)  0.2290 (105)  0.2141 (130) -0.1105 (131) -0.1016 (132)
 CRD 26=  -0.1477 (  8)  0.2952 (  9)  0.3929 ( 10) -0.4885 ( 12) -0.4733 ( 13)
           0.1082 ( 17) -0.1321 ( 18)  0.1253 ( 47) -0.1787 ( 56) -0.1199 (110)
           0.1412 (112)  0.1025 (119)
 CRD 27=  -0.4058 (  6) -0.4241 (  8)  0.3355 (  9)  0.3073 ( 10)  0.2284 ( 12)
           0.3609 ( 13) -0.1739 ( 42)  0.1256 ( 47)  0.1227 ( 56)  0.1191 ( 95)
          -0.1442 ( 96) -0.1031 (109)
 CRD 28=  -0.4108 (  6) -0.3819 (  8) -0.4734 (  9) -0.2880 ( 10) -0.1658 ( 12)
          -0.1811 ( 13) -0.1796 ( 42) -0.1722 ( 47)  0.1103 ( 90) -0.1724 (101)
           0.1252 (109)
 CRD 29=  -0.1329 (  8)  0.2610 ( 12) -0.2864 ( 13)  0.3221 ( 19) -0.2152 ( 21)
          -0.1132 ( 30)  0.1300 ( 31) -0.1006 ( 44)  0.1437 ( 52) -0.1231 ( 59)
          -0.1237 ( 62) -0.1172 ( 66) -0.1171 ( 69)  0.1291 ( 80)  0.1013 ( 83)
          -0.1039 ( 89)  0.1232 ( 90)  0.1563 ( 95)  0.1325 (101)  0.1328 (105)
          -0.1412 (107)  0.1670 (116) -0.1447 (121) -0.1664 (122)  0.2202 (123)
           0.1035 (130)
 CRD 30=  -0.2127 (  6)  0.2242 (  8) -0.3024 ( 12)  0.1644 ( 13)  0.2047 ( 19)
          -0.1638 ( 20) -0.2652 ( 21)  0.1182 ( 35) -0.1315 ( 36)  0.1228 ( 44)
          -0.1293 ( 45)  0.1140 ( 48) -0.1010 ( 49) -0.1351 ( 62)  0.1128 ( 64)
          -0.1088 ( 78) -0.1031 ( 79)  0.1260 ( 80) -0.1411 ( 90) -0.1470 ( 95)
          -0.1562 ( 96) -0.1622 (101) -0.2002 (109) -0.2059 (110) -0.1811 (112)
          -0.1868 (113)  0.1505 (116)  0.1839 (123)
 CRD 31=   0.2044 (  4)  0.2217 (  5)  0.1030 (  8) -0.2631 ( 14)  0.1461 ( 17)
           0.2934 ( 19) -0.2118 ( 20)  0.4469 ( 21) -0.1124 ( 24)  0.1039 ( 43)
           0.1264 ( 54)  0.1616 ( 63) -0.1408 ( 64) -0.1155 ( 66)  0.1072 ( 93)
           0.1259 (118) -0.1079 (123) -0.1097 (126) -0.1569 (128) -0.1106 (130)
          -0.1074 (131) -0.1301 (132)
 CRD 32=   0.2830 (  9) -0.3794 ( 10)  0.1562 ( 20)  0.1003 ( 21)  0.1028 ( 22)
           0.1242 ( 67)  0.1018 ( 71)  0.1089 ( 75) -0.1236 ( 77) -0.1977 ( 78)
          -0.1623 ( 79)  0.2075 ( 90)  0.1744 ( 92)  0.1923 ( 95)  0.1645 ( 96)
           0.1314 (100)  0.1493 (101) -0.1546 (108) -0.1933 (109) -0.2287 (110)
          -0.1699 (111) -0.2086 (112) -0.2440 (113)
 CRD 33=  -0.2828 (  4)  0.1669 (  5) -0.2029 (  6)  0.2015 (  8)  0.1375 ( 12)
          -0.1385 ( 13) -0.1082 ( 15) -0.1362 ( 16) -0.2430 ( 19)  0.2538 ( 20)
           0.1079 ( 21) -0.1329 ( 57)  0.1105 ( 60)  0.1021 ( 62) -0.1098 ( 66)
          -0.1267 ( 69)  0.1215 ( 71)  0.1031 ( 85)  0.1768 ( 87) -0.1065 ( 90)
           0.1144 ( 91)  0.1881 ( 93) -0.1416 ( 96)  0.1192 ( 97)  0.1930 ( 98)
          -0.1274 (101)  0.1060 (103) -0.1769 (107) -0.1548 (127)  0.1213 (128)
 CRD 34=   0.2108 (  5)  0.1066 (  8)  0.1330 (  9) -0.1243 ( 10)  0.1220 ( 12)
          -0.1648 ( 13) -0.1488 ( 16) -0.1588 ( 17) -0.2724 ( 18)  0.1398 ( 19)
          -0.1680 ( 20) -0.1004 ( 25)  0.1036 ( 27) -0.1905 ( 53) -0.1702 ( 54)
          -0.1760 ( 55)  0.1370 ( 58)  0.2243 ( 59)  0.1152 ( 60)  0.2075 ( 61)
          -0.1150 ( 70) -0.1402 ( 88)  0.1922 (114)  0.1460 (115) -0.1063 (117)
          -0.1333 (118) -0.1706 (119) -0.1768 (124) -0.1498 (126) -0.1298 (128)
 CRD 35=   0.4031 (  4)  0.1914 (  6) -0.1393 (  8) -0.1288 (  9)  0.1098 ( 10)
          -0.1845 ( 14) -0.1170 ( 18) -0.1750 ( 21) -0.1333 ( 30)  0.1327 ( 39)
           0.1165 ( 43)  0.1193 ( 46)  0.1711 ( 52)  0.1642 ( 56)  0.1147 ( 61)
          -0.1047 ( 82) -0.1022 ( 88)  0.1352 ( 97)  0.1667 ( 98)  0.1312 (103)
          -0.1075 (108) -0.1645 (109) -0.1363 (114) -0.1607 (119)  0.1500 (130)
           0.2055 (131)  0.1450 (132)
 CRD 36=  -0.1033 (  5)  0.1392 (  6) -0.2140 (  8) -0.1621 (  9)  0.2439 ( 10)
          -0.1759 ( 12)  0.2175 ( 13)  0.3112 ( 15) -0.1122 ( 16) -0.2498 ( 17)
           0.1256 ( 24)  0.1067 ( 35) -0.1014 ( 46)  0.1023 ( 49) -0.1406 ( 53)
          -0.1211 ( 54) -0.1805 ( 55)  0.1604 ( 59)  0.2077 ( 60)  0.1114 ( 67)
          -0.1162 ( 69)  0.1348 ( 91) -0.1028 ( 92)  0.1300 (104) -0.1839 (111)
          -0.1202 (120) -0.1496 (122) -0.1077 (131)
 CRD 37=  -0.1589 (  6) -0.1333 (  9)  0.1612 ( 14)  0.3266 ( 15) -0.1580 ( 16)
          -0.1846 ( 28)  0.1347 ( 37)  0.1060 ( 38)  0.1108 ( 40)  0.1893 ( 47)
          -0.1585 ( 49) -0.1146 ( 53) -0.1758 ( 54)  0.1471 ( 60)  0.1225 ( 61)
          -0.1361 ( 67) -0.1196 ( 72) -0.1412 ( 90) -0.1113 ( 91) -0.1032 ( 93)
           0.1527 (100)  0.2609 (101) -0.1093 (104) -0.1443 (109)  0.1008 (111)
           0.1704 (119)  0.1846 (120) -0.1199 (125) -0.1156 (127)
 CRD 38=   0.1926 ( 15) -0.1249 ( 16) -0.1472 ( 21) -0.1025 ( 23) -0.1245 ( 26)
          -0.1717 ( 27) -0.1112 ( 30) -0.1230 ( 31) -0.1069 ( 49)  0.1355 ( 52)
           0.1841 ( 57)  0.1149 ( 62)  0.1571 ( 63) -0.1450 ( 66) -0.1145 ( 69)
           0.1693 ( 71)  0.1364 ( 81) -0.1273 ( 87) -0.1373 ( 93) -0.1367 ( 98)
           0.1811 (107)  0.1015 (111) -0.2467 (114)  0.1909 (115)  0.1572 (118)
           0.1156 (120) -0.1583 (123)  0.2377 (125)  0.2625 (127)
 CRD 39=   0.1333 (  3)  0.1241 (  4) -0.2866 (  5)  0.1995 ( 14) -0.1597 ( 15)
           0.1159 ( 16) -0.1216 ( 17)  0.1373 ( 18)  0.1486 ( 19)  0.1237 ( 24)
          -0.1404 ( 35) -0.1158 ( 36)  0.1689 ( 39)  0.1577 ( 40) -0.1182 ( 42)
           0.1163 ( 45) -0.1735 ( 61) -0.1391 ( 94)  0.1979 ( 97)  0.2391 ( 98)
           0.1474 ( 99) -0.1072 (108) -0.1223 (109) -0.1922 (110)  0.1220 (111)
           0.1068 (112) -0.1520 (116) -0.1657 (123) -0.1049 (124) -0.1556 (131)
 CRD 40=   0.1540 (  3)  0.1292 (  4) -0.1316 (  6) -0.3145 (  7)  0.2652 ( 11)
           0.1418 ( 13) -0.1292 ( 14) -0.1362 ( 15) -0.1554 ( 21) -0.1447 ( 28)
          -0.1311 ( 31)  0.1491 ( 35)  0.1880 ( 36) -0.1660 ( 44) -0.1803 ( 45)
           0.1219 ( 49) -0.1294 ( 56) -0.2020 ( 67)  0.1129 ( 81) -0.1919 ( 90)
           0.2117 (101)  0.2377 (109) -0.1244 (111) -0.1623 (113) -0.1037 (116)
          -0.1234 (121) -0.1539 (123)
 CRD 41=  -0.2618 (  3)  0.2401 (  4)  0.2283 (  9) -0.1154 ( 10)  0.1010 ( 12)
          -0.2198 ( 14)  0.2085 ( 15) -0.1006 ( 17)  0.1105 ( 19)  0.1126 ( 31)
          -0.1076 ( 38)  0.2009 ( 48) -0.2132 ( 51)  0.1219 ( 62)  0.1302 ( 72)
          -0.1675 ( 75) -0.1727 ( 78)  0.1152 ( 84) -0.1687 ( 95) -0.1101 (101)
           0.1260 (108)  0.1577 (109)  0.1181 (112) -0.1207 (116)  0.1597 (121)
           0.1103 (122)  0.1012 (123)  0.1615 (124)  0.2459 (126)
 CRD 42=   0.1342 (  3) -0.1163 (  4)  0.3114 (  5) -0.1280 (  6) -0.1535 (  9)
           0.1294 ( 11) -0.1082 ( 13) -0.1369 ( 15) -0.1564 ( 20)  0.1907 ( 21)
          -0.1419 ( 22) -0.1623 ( 28)  0.1283 ( 31)  0.1787 ( 42) -0.1660 ( 51)
           0.1025 ( 57)  0.1607 ( 64)  0.1097 ( 72) -0.1273 ( 81) -0.1423 ( 87)
          -0.1200 ( 90) -0.1576 ( 92) -0.1658 ( 93)  0.1577 ( 96) -0.1717 ( 98)
           0.1201 (100)  0.2028 (101) -0.1244 (109) -0.1205 (110)  0.1707 (123)
           0.1449 (126)  0.1051 (127)
 CRD 43=  -0.1091 (  8)  0.1254 ( 14) -0.1834 ( 15) -0.2575 ( 16)  0.2739 ( 18)
          -0.2075 ( 20)  0.1120 ( 21)  0.1769 ( 55) -0.2220 ( 59)  0.1683 ( 60)
          -0.1850 ( 63)  0.2635 ( 68) -0.1041 ( 81)  0.1038 (103) -0.2060 (104)
           0.1403 (105) -0.1617 (106) -0.1126 (112) -0.1076 (113) -0.1790 (118)
           0.1493 (120)  0.1198 (122) -0.1324 (124) -0.1021 (129)  0.2167 (130)
          -0.1296 (132)
 CRD 44=  -0.1749 (  3)  0.1344 (  7) -0.1185 ( 13)  0.1948 ( 14) -0.1191 ( 15)
           0.2201 ( 16) -0.1407 ( 17)  0.2319 ( 19) -0.1480 ( 20)  0.1219 ( 22)
           0.1007 ( 32)  0.1215 ( 37) -0.1388 ( 40) -0.1026 ( 45) -0.1056 ( 48)
          -0.1318 ( 49)  0.1409 ( 59) -0.1265 ( 61)  0.1884 ( 62) -0.1222 ( 63)
           0.1165 ( 66) -0.1359 ( 68)  0.1055 ( 78) -0.1154 ( 79)  0.1601 ( 84)
           0.1064 ( 91)  0.1126 ( 93)  0.1324 ( 95) -0.1301 ( 96)  0.1525 (103)
           0.1354 (104) -0.1171 (105) -0.1157 (109)  0.1053 (110) -0.1524 (112)
          -0.1453 (116)  0.1238 (126)  0.1080 (128)  0.1727 (132)
 CRD 45=  -0.1574 (  7)  0.1011 (  8)  0.1025 (  9) -0.1098 ( 11)  0.1123 ( 15)
          -0.1974 ( 20)  0.3461 ( 21) -0.1595 ( 42)  0.1319 ( 50) -0.1846 ( 63)
           0.2263 ( 64) -0.1347 ( 68)  0.1114 ( 71)  0.1869 ( 80) -0.1636 ( 81)
           0.1019 ( 92) -0.1458 ( 93) -0.1891 ( 94) -0.1221 ( 96)  0.1142 ( 97)
           0.1929 (116) -0.1577 (118) -0.1210 (122)  0.1238 (123) -0.2268 (124)
           0.1207 (125)
 CRD 46=   0.1135 ( 11)  0.1102 ( 16) -0.3326 ( 17)  0.2152 ( 18) -0.1969 ( 19)
           0.1079 ( 20) -0.1854 ( 24)  0.1377 ( 43) -0.1234 ( 53)  0.1781 ( 54)
           0.1649 ( 60) -0.2492 ( 61) -0.1608 ( 62)  0.1951 ( 66) -0.2227 ( 69)
           0.1286 ( 80) -0.1030 (103)  0.1658 (104) -0.2520 (106)  0.1321 (116)
           0.1023 (122) -0.1028 (126) -0.2486 (128) -0.2058 (131)  0.2119 (132)
 CRD 47=   0.1144 (  4)  0.1307 (  6) -0.1931 (  8)  0.2184 ( 12) -0.1315 ( 15)
          -0.1675 ( 19)  0.1456 ( 20)  0.1043 ( 24)  0.1301 ( 37) -0.1171 ( 40)
          -0.1280 ( 51) -0.1298 ( 56) -0.1508 ( 62)  0.1273 ( 63)  0.1351 ( 65)
          -0.2045 ( 70)  0.1499 ( 71) -0.1583 ( 78) -0.1108 ( 86) -0.1637 ( 90)
           0.1259 ( 91) -0.1194 ( 92)  0.1075 ( 93) -0.1202 ( 96)  0.1576 (102)
          -0.1035 (103) -0.1233 (105) -0.1225 (113) -0.1919 (117)  0.1441 (119)
           0.1607 (120)  0.1151 (123)  0.1346 (129)  0.1186 (133)
 CRD 48=   0.2061 (  5) -0.1595 (  7)  0.1638 (  9)  0.1007 ( 10) -0.3341 ( 11)
           0.1391 ( 13) -0.1081 ( 15) -0.1686 ( 25)  0.1033 ( 33)  0.1225 ( 38)
           0.1407 ( 40)  0.2035 ( 43)  0.1117 ( 44) -0.2058 ( 47) -0.1503 ( 48)
           0.1241 ( 67) -0.1682 ( 72) -0.1658 ( 75)  0.1115 ( 86)  0.1253 ( 90)
          -0.1185 ( 93) -0.1646 ( 95)  0.2128 ( 96)  0.1380 (103)  0.1301 (110)
          -0.1057 (111)  0.1222 (120) -0.2359 (121) -0.1189 (122)  0.1096 (124)
 CRD 49=  -0.2545 (  7)  0.1655 (  9) -0.2251 ( 13)  0.2247 ( 14)  0.1708 ( 33)
           0.1183 ( 36)  0.1007 ( 37) -0.2044 ( 41) -0.1616 ( 43) -0.1298 ( 45)
          -0.1737 ( 47) -0.1040 ( 49)  0.2247 ( 56)  0.1459 ( 72) -0.2239 ( 79)
          -0.1073 ( 89) -0.1164 ( 95) -0.1066 (103)  0.1021 (106)  0.2101 (108)
           0.2966 (110) -0.3253 (112) -0.1219 (120)  0.1736 (121)
 CRD 50=  -0.3525 (  3)  0.1013 (  4)  0.1895 (  8) -0.1023 (  9)  0.1452 ( 11)
          -0.1017 ( 12)  0.1315 ( 14)  0.1437 ( 24) -0.1251 ( 25) -0.1010 ( 27)
           0.1632 ( 29)  0.1200 ( 35) -0.2026 ( 42) -0.1107 ( 46) -0.1865 ( 51)
           0.1009 ( 65) -0.1515 ( 70)  0.1240 ( 78)  0.1484 ( 90)  0.1625 ( 92)
          -0.1926 ( 93) -0.1230 ( 94)  0.2679 ( 95) -0.1372 ( 96) -0.1231 (100)
          -0.1417 (117) -0.1088 (119)  0.1035 (123)  0.1341 (124)
 CRD 51=   0.1593 (  4) -0.1696 (  6)  0.2064 (  7) -0.1228 ( 10) -0.1576 ( 12)
           0.1260 ( 14) -0.1191 ( 15)  0.1598 ( 24) -0.1587 ( 29) -0.1190 ( 31)
           0.1417 ( 32) -0.1269 ( 35)  0.1374 ( 38)  0.1378 ( 42)  0.1484 ( 44)
          -0.1317 ( 48) -0.1189 ( 70)  0.1481 ( 73) -0.1265 ( 75) -0.1383 ( 77)
           0.1864 ( 80)  0.1229 ( 91) -0.1142 ( 95) -0.1261 ( 98) -0.2318 ( 99)
           0.1981 (100)  0.1317 (110)  0.1098 (112)  0.2481 (113) -0.1120 (117)
 CRD 52=   0.1049 (  4) -0.1669 (  5) -0.1752 (  6)  0.1936 ( 10)  0.1119 ( 12)
           0.1325 ( 15)  0.1258 ( 22) -0.1291 ( 31)  0.1399 ( 32) -0.1183 ( 36)
          -0.1333 ( 38) -0.1828 ( 39)  0.1521 ( 45) -0.1051 ( 47) -0.1059 ( 73)
          -0.2155 ( 74) -0.1192 ( 75)  0.1788 ( 77)  0.1013 ( 79)  0.1837 ( 80)
           0.1092 ( 81)  0.1296 ( 84)  0.1498 ( 85)  0.2124 ( 87) -0.1194 ( 88)
          -0.1171 ( 89)  0.2190 ( 90)  0.2373 ( 96) -0.1091 ( 97) -0.1968 ( 99)
          -0.1297 (110) -0.1183 (112) -0.2193 (113)
 CRD 53=  -0.1249 (  3) -0.1023 (  8) -0.1095 ( 10)  0.1058 ( 11)  0.1484 ( 14)
           0.2709 ( 15) -0.1454 ( 24) -0.1146 ( 25) -0.2750 ( 34)  0.2644 ( 43)
          -0.2093 ( 46)  0.1541 ( 53)  0.2558 ( 82)  0.1129 ( 83)  0.1160 ( 87)
          -0.1235 ( 90)  0.1920 ( 93)  0.1743 ( 98) -0.2175 (102)  0.1175 (103)
           0.1050 (106) -0.1615 (107)  0.1167 (111)  0.1065 (113) -0.1252 (114)
          -0.1046 (119) -0.1049 (125) -0.1310 (128) -0.1609 (129)
 CRD 54=   0.1290 (  5) -0.1704 ( 14)  0.1362 ( 15)  0.1011 ( 21)  0.3712 ( 24)
          -0.1327 ( 34) -0.3889 ( 43)  0.2435 ( 54)  0.2667 ( 58)  0.1504 ( 66)
           0.1239 ( 68)  0.1138 ( 76)  0.1344 ( 82) -0.1337 ( 88) -0.1251 (106)
           0.1230 (120) -0.1092 (121) -0.2079 (125)  0.3365 (128) -0.2171 (129)

 THE DETERMINANT OF THE G MATRIX IS 10**(   -13)


                     --------------------
                     INTERNAL COORDINATES
                     --------------------

                 - - ATOMS - -         COORDINATE      COORDINATE
 NO.   TYPE    I  J  K  L  M  N        (BOHR,RAD)       (ANG,DEG)
 ----------------------------------------------------------------
   1 STRETCH   1 17                     3.9303433       2.0798483
   2 STRETCH   9 18                     3.7969989       2.0092855
   3 STRETCH   1  2                     2.8745812       1.5211630
   4 STRETCH   1 12                     2.0862134       1.1039767
   5 STRETCH   1  9                     2.5932337       1.3722803
   6 STRETCH   2  4                     2.0980591       1.1102451
   7 STRETCH   2  3                     2.8901323       1.5293923
   8 STRETCH   2  5                     2.1003665       1.1114662
   9 STRETCH   3  8                     2.0985295       1.1104941
  10 STRETCH   3  7                     2.1082881       1.1156581
  11 STRETCH   3  6                     2.8730204       1.5203370
  12 STRETCH   6 11                     2.1036918       1.1132258
  13 STRETCH   6 10                     2.0987596       1.1106158
  14 STRETCH   6  9                     2.8269679       1.4959671
  15 STRETCH   9 13                     2.8412668       1.5035337
  16 STRETCH  13 15                     2.0973290       1.1098588
  17 STRETCH  13 14                     2.0990365       1.1107624
  18 STRETCH  13 16                     2.0976301       1.1100181
  19 STRETCH  17 20                     2.2391237       1.1848933
  20 STRETCH  17 19                     2.2358662       1.1831695
  21 STRETCH  17 18                     2.3456525       1.2412660
  22 BEND      1  2  4                  1.9925451     114.1644264
  23 BEND      1 17 18                  1.3650706      78.2127855
  24 BEND      1  9 13                  2.1786159     124.8254959
  25 BEND      1  9  6                  1.9259776     110.3503871
  26 BEND      1 17 20                  1.9040848     109.0960256
  27 BEND      1 17 19                  2.0254665     116.0506837
  28 BEND      1  2  5                  1.9173877     109.8582233
  29 BEND      1  2  3                  1.7766501     101.7945518
  30 BEND      1  9 18                  1.3683844      78.4026492
  31 BEND      2  1 12                  2.1882389     125.3768534
  32 BEND      2  1  9                  1.8815428     107.8044621
  33 BEND      2  3  6                  1.7794939     101.9574890
  34 BEND      2  1 17                  1.8785125     107.6308358
  35 BEND      2  3  8                  2.0013833     114.6708143
  36 BEND      2  3  7                  1.8891499     108.2403134
  37 BEND      3  6 10                  1.9966252     114.3981952
  38 BEND      3  6 11                  1.8937542     108.5041241
  39 BEND      3  2  5                  1.9064457     109.2312934
  40 BEND      3  2  4                  1.9558964     112.0646090
  41 BEND      3  6  9                  1.7374224      99.5469687
  42 BEND      4  2  5                  1.9103583     109.4554667
  43 BEND      6  9 13                  2.1683442     124.2369733
  44 BEND      6  3  7                  1.8798060     107.7049489
  45 BEND      6  3  8                  2.0135430     115.3675182
  46 BEND      6  9 18                  1.8096397     103.6847150
  47 BEND      7  3  8                  1.8928939     108.4548331
  48 BEND      9  6 10                  2.0062379     114.9489648
  49 BEND      9  6 11                  1.9008085     108.9083063
  50 BEND      9  1 17                  1.7001115      97.4092116
  51 BEND      9  1 12                  2.0925544     119.8945330
  52 BEND      9 18 17                  1.8484126     105.9062417
  53 BEND      9 13 16                  1.9113157     109.5103232
  54 BEND      9 13 14                  1.9361450     110.9329380
  55 BEND      9 13 15                  1.9110143     109.4930533
  56 BEND     10  6 11                  1.9190146     109.9514346
  57 BEND     12  1 17                  1.6018229      91.7776940
  58 BEND     13  9 18                  1.6581927      95.0074446
  59 BEND     14 13 16                  1.8998919     108.8557877
  60 BEND     14 13 15                  1.9009029     108.9137118
  61 BEND     15 13 16                  1.9042503     109.1055067
  62 BEND     18 17 19                  2.0330032     116.4825008
  63 BEND     18 17 20                  2.0289992     116.2530928
  64 BEND     19 17 20                  2.0109992     115.2217676
  65 TORSION   1 17 18  9               0.0299368       1.7152531
  66 TORSION   1  9 13 16               2.1895097     125.4496663
  67 TORSION   1  2  3  8               2.8386343     162.6417667
  68 TORSION   1  9 13 14               0.0920642       5.2748891
  69 TORSION   1  9 13 15              -2.0064430    -114.9607133
  70 TORSION   1  9 18 17              -0.0453503      -2.5983833
  71 TORSION   1  9  6 10               2.7099204     155.2670023
  72 TORSION   1  9  6 11              -1.4114998     -80.8729817
  73 TORSION   1  9  6  3               0.5684113      32.5675686
  74 TORSION   1  2  3  6               0.6501012      37.2480562
  75 TORSION   1  2  3  7              -1.3290525     -76.1490978
  76 TORSION   2  1  9  6              -0.1622924      -9.2986678
  77 TORSION   2  3  6  9              -0.7299019     -41.8202986
  78 TORSION   2  3  6 10              -2.8782384    -164.9109148
  79 TORSION   2  3  6 11               1.2554772      71.9335471
  80 TORSION   2  1 17 19              -0.0860406      -4.9297638
  81 TORSION   2  1 17 20              -2.3926155    -137.0867678
  82 TORSION   2  1  9 18              -1.9155676    -109.7539399
  83 TORSION   2  1  9 13               2.8310515     162.2073023
  84 TORSION   2  1 17 18               1.9017729     108.9635633
  85 TORSION   3  2  1  9              -0.3127449     -17.9189639
  86 TORSION   3  2  1 17              -2.1302181    -122.0525093
  87 TORSION   3  2  1 12               2.3133601     132.5457674
  88 TORSION   3  6  9 18               2.0084688     115.0767846
  89 TORSION   3  6  9 13              -2.4259843    -138.9986619
  90 TORSION   4  2  3  8              -1.3082129     -74.9550798
  91 TORSION   4  2  1  9              -2.4237304    -138.8695245
  92 TORSION   4  2  3  6               2.7864393     159.6512097
  93 TORSION   4  2  1 12               0.2023745      11.5952067
  94 TORSION   4  2  1 17               2.0419816     116.9969300
  95 TORSION   4  2  3  7               0.8072856      46.2540557
  96 TORSION   5  2  3  8               0.8118230      46.5140337
  97 TORSION   5  2  1  9               1.7060662      97.7503955
  98 TORSION   5  2  1 12              -1.9510141    -111.7848732
  99 TORSION   5  2  1 17              -0.1114070      -6.3831499
 100 TORSION   5  2  3  6              -1.3767101     -78.8796768
 101 TORSION   5  2  3  7               2.9273215     167.7231693
 102 TORSION   6  9  1 17               1.7795175     101.9588417
 103 TORSION   6  9 18 17              -1.9370358    -110.9839785
 104 TORSION   6  9 13 16              -1.1203907     -64.1936605
 105 TORSION   6  9 13 14               3.0653490     175.6315623
 106 TORSION   6  9 13 15               0.9668419      55.3959599
 107 TORSION   6  9  1 12              -2.8217990    -161.6771707
 108 TORSION   7  3  6  9               1.2561910      71.9744431
 109 TORSION   7  3  6 11              -3.0416152    -174.2717112
 110 TORSION   7  3  6 10              -0.8921455     -51.1161731
 111 TORSION   8  3  6  9              -2.9103789    -166.7524253
 112 TORSION   8  3  6 11              -0.9249997     -52.9985796
 113 TORSION   8  3  6 10               1.2244699      70.1569585
 114 TORSION   9 18 17 19               2.0092573     115.1219632
 115 TORSION   9 18 17 20              -1.8139566    -103.9320554
 116 TORSION   9  1 17 19              -2.0303300    -116.3293378
 117 TORSION   9  1 17 18              -0.0425164      -2.4360107
 118 TORSION   9  1 17 20               1.9462805     111.5136582
 119 TORSION  10  6  9 18              -2.1332074    -122.2237817
 120 TORSION  10  6  9 13              -0.2844752     -16.2992281
 121 TORSION  11  6  9 18               0.0285577       1.6362343
 122 TORSION  11  6  9 13               1.8772899     107.5607879
 123 TORSION  12  1 17 19               2.1504980     123.2144613
 124 TORSION  12  1 17 20              -0.1560768      -8.9425428
 125 TORSION  12  1  9 13               0.1715449       9.8287994
 126 TORSION  12  1 17 18              -2.1448737    -122.8922117
 127 TORSION  12  1  9 18               1.7081111      97.8675572
 128 TORSION  13  9 18 17               2.1285879     121.9591003
 129 TORSION  13  9  1 17              -1.5103240     -86.5351882
 130 TORSION  14 13  9 18              -1.2927848     -74.0711142
 131 TORSION  15 13  9 18               2.8918933     165.6932834
 132 TORSION  16 13  9 18               0.8046607      46.1036630
 133 TORSION  17  1  9 18               0.0262422       1.5035697

     ------------------------------------------
     THE POINT GROUP IS C1 , NAXIS= 0, ORDER= 1
     ------------------------------------------

     DIMENSIONS OF THE SYMMETRY SUBSPACES ARE
 A   =   48

 ..... DONE SETTING UP THE RUN .....
 STEP CPU TIME =     0.05 TOTAL CPU TIME =          0.0 (      0.0 MIN)
 TOTAL WALL CLOCK TIME=          0.1 SECONDS, CPU UTILIZATION IS    71.43%


          -----------------------------
          STATIONARY POINT LOCATION RUN
          -----------------------------


           ** GEOMETRY CONSTRAINTS ARE BEING APPLIED. **

          TRANSFORMING DISPLACEMENT FROM INTERNALS TO CARTESIANS
          THE ROOT MEAN SQUARE ERROR IN ITERATION   1 IS   0.00083903
          THE ROOT MEAN SQUARE ERROR IN ITERATION   2 IS   0.00000022
          THE ROOT MEAN SQUARE ERROR IN ITERATION   3 IS   0.00000000
 WARNING! THE RADIUS IN CARTESIANS IS    0.24565
 OBTAINING INITIAL HESSIAN, HESS=CALC    

     ---------------------------------
     HESSIAN MATRIX CONTROL PARAMETERS
     ---------------------------------
     METHOD=ANALYTIC   NVIB  =       2   VIBSIZ= 0.01000
     RDHESS=       F   PURIFY=       F   PRTIFC=       F
     VIBANL=       F   DECOMP=       F   PROJCT=       F
     SCLFAC= 1.00000   PRTSCN=       F   NPRT  =       0
     PULCOR=       F   NPUN  =       0   REDOVB=       T
     HSSTYP=GENERAL 
 Old integral subroutine is used

     ------------------------------
     CPHF RESPONSE SOLUTION OPTIONS
     ------------------------------
     POLAR  =       F     NWORD  =       0
     CPHF   =AO      

          ********************
          1 ELECTRON INTEGRALS
          ********************
 ...... END OF ONE-ELECTRON INTEGRALS ......
 STEP CPU TIME =     0.04 TOTAL CPU TIME =          0.1 (      0.0 MIN)
 TOTAL WALL CLOCK TIME=          0.1 SECONDS, CPU UTILIZATION IS    90.00%

          -------------
          GUESS OPTIONS
          -------------
          GUESS =HUCKEL            NORB  =       0          NORDER=       0
          MIX   =       F          PRTMO =       F          PUNMO =       F
          TOLZ  = 1.0E-08          TOLE  = 1.0E-05
          SYMDEN=       F          PURIFY=       F

 INITIAL GUESS ORBITALS GENERATED BY HUCKEL   ROUTINE.
 HUCKEL GUESS REQUIRES     39252 WORDS.

 SYMMETRIES FOR INITIAL GUESS ORBITALS FOLLOW.   BOTH SET(S).
    27 ORBITALS ARE OCCUPIED (    7 CORE ORBITALS).
     8=A        9=A       10=A       11=A       12=A       13=A       14=A   
    15=A       16=A       17=A       18=A       19=A       20=A       21=A   
    22=A       23=A       24=A       25=A       26=A       27=A       28=A   
    29=A       30=A       31=A       32=A       33=A       34=A       35=A   
    36=A       37=A   
 ...... END OF INITIAL ORBITAL SELECTION ......
 STEP CPU TIME =     0.01 TOTAL CPU TIME =          0.1 (      0.0 MIN)
 TOTAL WALL CLOCK TIME=          0.1 SECONDS, CPU UTILIZATION IS    83.33%

                    ----------------------
                    AO INTEGRAL TECHNOLOGY
                    ----------------------
     S,P,L SHELL ROTATED AXIS INTEGRALS, REPROGRAMMED BY
        KAZUYA ISHIMURA (IMS) AND JOSE SIERRA (SYNSTAR).
     S,P,D,L SHELL ROTATED AXIS INTEGRALS PROGRAMMED BY
        KAZUYA ISHIMURA (INSTITUTE FOR MOLECULAR SCIENCE).
     S,P,D,F,G SHELL TO TOTAL QUARTET ANGULAR MOMENTUM SUM 5,
        ERIC PROGRAM BY GRAHAM FLETCHER (ELORET AND NASA ADVANCED
        SUPERCOMPUTING DIVISION, AMES RESEARCH CENTER).
     S,P,D,F,G,L SHELL GENERAL RYS QUADRATURE PROGRAMMED BY
        MICHEL DUPUIS (PACIFIC NORTHWEST NATIONAL LABORATORY).

          --------------------
          2 ELECTRON INTEGRALS
          --------------------

 THE -PK- OPTION IS OFF, THE INTEGRALS ARE NOT IN SUPERMATRIX FORM.
 STORING   15000 INTEGRALS/RECORD ON DISK, USING 12 BYTES/INTEGRAL.
 TWO ELECTRON INTEGRAL EVALUATION REQUIRES   89734 WORDS OF MEMORY.
 SCHWARZ INEQUALITY OVERHEAD:      1168 INTEGRALS, T=        0.00
 II,JST,KST,LST =  1  1  1  1 NREC =         1 INTLOC =    1
 II,JST,KST,LST =  2  1  1  1 NREC =         1 INTLOC =    2
 II,JST,KST,LST =  3  1  1  1 NREC =         1 INTLOC =   34
 II,JST,KST,LST =  4  1  1  1 NREC =         1 INTLOC =  142
 II,JST,KST,LST =  5  1  1  1 NREC =         1 INTLOC = 1362
 II,JST,KST,LST =  6  1  1  1 NREC =         1 INTLOC = 1940
 II,JST,KST,LST =  7  1  1  1 NREC =         1 INTLOC = 6817
 II,JST,KST,LST =  8  1  1  1 NREC =         1 INTLOC = 8850
 II,JST,KST,LST =  9  1  1  1 NREC =         1 INTLOC =11292
 II,JST,KST,LST = 10  1  1  1 NREC =         1 INTLOC =13769
 II,JST,KST,LST = 11  1  1  1 NREC =         3 INTLOC =  776
 II,JST,KST,LST = 12  1  1  1 NREC =         3 INTLOC = 6784
 II,JST,KST,LST = 13  1  1  1 NREC =         3 INTLOC =13610
 II,JST,KST,LST = 14  1  1  1 NREC =         4 INTLOC = 5525
 II,JST,KST,LST = 15  1  1  1 NREC =         7 INTLOC = 1533
 II,JST,KST,LST = 16  1  1  1 NREC =         7 INTLOC =14825
 II,JST,KST,LST = 17  1  1  1 NREC =         8 INTLOC =14537
 II,JST,KST,LST = 18  1  1  1 NREC =        10 INTLOC =  695
 II,JST,KST,LST = 19  1  1  1 NREC =        11 INTLOC =   42
 II,JST,KST,LST = 20  1  1  1 NREC =        16 INTLOC =11924
 II,JST,KST,LST = 21  1  1  1 NREC =        18 INTLOC = 8426
 II,JST,KST,LST = 22  1  1  1 NREC =        20 INTLOC = 7221
 II,JST,KST,LST = 23  1  1  1 NREC =        22 INTLOC = 8035
 II,JST,KST,LST = 24  1  1  1 NREC =        24 INTLOC = 4267
 II,JST,KST,LST = 25  1  1  1 NREC =        34 INTLOC =14006
 II,JST,KST,LST = 26  1  1  1 NREC =        38 INTLOC = 1578
 II,JST,KST,LST = 27  1  1  1 NREC =        41 INTLOC = 6265
 SCHWARZ INEQUALITY TEST SKIPPED        8055 INTEGRAL BLOCKS.
 TOTAL NUMBER OF NONZERO TWO-ELECTRON INTEGRALS =              658330
         44 INTEGRAL RECORDS WERE STORED ON DISK FILE  8.
  ...... END OF TWO-ELECTRON INTEGRALS .....
 STEP CPU TIME =     0.18 TOTAL CPU TIME =          0.3 (      0.0 MIN)
 TOTAL WALL CLOCK TIME=          0.3 SECONDS, CPU UTILIZATION IS    93.33%

          --------------------------
                 RHF SCF CALCULATION
          --------------------------

     NUCLEAR ENERGY =       305.0110575218
     MAXIT =   30     NPUNCH=    2
     EXTRAP=T  DAMP=F  SHIFT=F  RSTRCT=F  DIIS=F  DEM=F  SOSCF=T
     DENSITY MATRIX CONV=  1.00E-05
     SOSCF WILL OPTIMIZE     567 ORBITAL ROTATIONS, SOGTOL=   0.250
     MEMORY REQUIRED FOR RHF ITERS=     49068 WORDS.

 ITER EX DEM     TOTAL ENERGY        E CHANGE  DENSITY CHANGE     ORB. GRAD
   1  0  0     -255.8603547567  -255.8603547567   0.310326218   0.000000000
          ---------------START SECOND ORDER SCF---------------
   2  1  0     -256.2412269585    -0.3808722018   0.094378940   0.031702112
   3  2  0     -256.2618204217    -0.0205934632   0.045549638   0.015518963
   4  3  0     -256.2652398751    -0.0034194534   0.010877021   0.004008501
   5  4  0     -256.2655133498    -0.0002734746   0.002768305   0.001118818
   6  5  0     -256.2655507507    -0.0000374010   0.001678965   0.000398118
   7  6  0     -256.2655569562    -0.0000062055   0.000392057   0.000066759
   8  7  0     -256.2655572079    -0.0000002516   0.000199323   0.000030583
   9  8  0     -256.2655572611    -0.0000000532   0.000033467   0.000008727
  10  9  0     -256.2655572641    -0.0000000030   0.000010641   0.000002541
  11 10  0     -256.2655572644    -0.0000000003   0.000001124   0.000000432
  12 11  0     -256.2655572644    -0.0000000000   0.000000328   0.000000134

          -----------------
          DENSITY CONVERGED
          -----------------
     TIME TO FORM FOCK OPERATORS=       0.2 SECONDS (       0.0 SEC/ITER)
     TIME TO SOLVE SCF EQUATIONS=       0.0 SECONDS (       0.0 SEC/ITER)

 FINAL RHF ENERGY IS     -256.2655572644 AFTER  12 ITERATIONS

          ------------
          EIGENVECTORS
          ------------

                      1          2          3          4          5
                  -11.1251   -11.0848   -11.0798   -11.0622   -11.0524
                     A          A          A          A          A   
    1  C  1  S    0.002657  -0.000150  -0.000465  -0.000812  -0.002873
    2  C  1  S   -0.007030   0.000142   0.000204   0.000183  -0.005980
    3  C  1  X   -0.004127   0.000074   0.000013  -0.000124   0.002567
    4  C  1  Y   -0.000999  -0.000088   0.000059  -0.000091  -0.003344
    5  C  1  Z    0.001282   0.000083   0.000079  -0.000067   0.000854
    6  C  2  S   -0.000487  -0.000121  -0.001992  -0.012683   0.991884
    7  C  2  S    0.000149  -0.000044  -0.000057  -0.006186   0.037062
    8  C  2  X   -0.000119  -0.000045  -0.000180  -0.002723   0.000649
    9  C  2  Y   -0.000016   0.000011   0.000188  -0.003185  -0.000073
   10  C  2  Z    0.000094   0.000030   0.000262   0.000638  -0.000218
   11  C  3  S   -0.000995   0.000011  -0.005960   0.991859   0.013637
   12  C  3  S   -0.000034  -0.000011  -0.006051   0.037144  -0.005264
   13  C  3  X   -0.000147   0.000010  -0.003210   0.000375   0.002938
   14  C  3  Y    0.000460   0.000009   0.001944  -0.000704   0.003026
   15  C  3  Z   -0.000301   0.000006   0.002096   0.000276  -0.000679
   16  H  4  S   -0.000065  -0.000011  -0.000144   0.000199  -0.006690
   17  H  5  S    0.000010   0.000004   0.000082   0.000103  -0.006757
   18  C  6  S   -0.001524  -0.001891   0.991883   0.006880   0.002198
   19  C  6  S   -0.005857   0.000053   0.037610  -0.005586   0.000011
   20  C  6  X   -0.000216   0.000121  -0.000727   0.003096   0.000304
   21  C  6  Y    0.003530   0.000015  -0.000739  -0.002273   0.000212
   22  C  6  Z   -0.002287   0.000031   0.000627  -0.001962  -0.000009
   23  H  7  S   -0.000189   0.000029   0.000050  -0.006779  -0.000068
   24  H  8  S   -0.000203   0.000002   0.000166  -0.006644   0.000030
   25  C  9  S    0.992300   0.003190   0.002459   0.001159   0.000586
   26  C  9  S    0.035138  -0.005949  -0.006203  -0.000084   0.000272
   27  C  9  X   -0.001465  -0.003741  -0.000053   0.000247  -0.000004
   28  C  9  Y    0.000205   0.002084  -0.003725  -0.000268  -0.000021
   29  C  9  Z    0.000270  -0.001329   0.002511  -0.000185   0.000074
   30  H 10  S    0.000058  -0.000108  -0.006663   0.000077  -0.000171
   31  H 11  S   -0.000091   0.000041  -0.006780  -0.000041  -0.000009
   32  H 12  S    0.000085  -0.000053  -0.000082  -0.000022   0.000079
   33  C 13  S   -0.002246   0.991979   0.001896  -0.000002   0.000136
   34  C 13  S   -0.005621   0.037391   0.000250  -0.000056  -0.000061
   35  C 13  X    0.003488  -0.000313   0.000014   0.000022   0.000061
   36  C 13  Y   -0.001880   0.000331   0.000077   0.000010  -0.000007
   37  C 13  Z    0.001067  -0.000159  -0.000062   0.000067   0.000011
   38  H 14  S    0.000028  -0.006680  -0.000063  -0.000001  -0.000027
   39  H 15  S   -0.000115  -0.006765  -0.000044   0.000012  -0.000003
   40  H 16  S   -0.000093  -0.006722  -0.000063  -0.000004   0.000001
   41  B 17  S    0.000005  -0.000005  -0.000005   0.000002   0.000016
   42  B 17  S    0.000467   0.000048   0.000014  -0.000022  -0.000001
   43  B 17  X    0.000069   0.000015  -0.000004   0.000010   0.000080
   44  B 17  Y   -0.000161   0.000033   0.000031   0.000009  -0.000025
   45  B 17  Z   -0.000280  -0.000031   0.000001  -0.000046   0.000065
   46  H 18  S   -0.002027  -0.000092   0.000084  -0.000021   0.000013
   47  H 19  S   -0.000087  -0.000018   0.000006  -0.000006   0.000170
   48  H 20  S   -0.000049   0.000027   0.000002   0.000015  -0.000026

                      6          7          8          9         10
                  -11.0120    -7.3171    -1.1364    -0.9994    -0.9396
                     A          A          A          A          A   
    1  C  1  S    0.991955   0.000605  -0.104276  -0.017424   0.139743
    2  C  1  S    0.037035  -0.003725   0.257986   0.050287  -0.388399
    3  C  1  X    0.002148   0.000917   0.051948   0.078934   0.004708
    4  C  1  Y    0.000960   0.002379   0.051253  -0.041180  -0.031685
    5  C  1  Z   -0.000688   0.002310  -0.036190  -0.000014   0.009109
    6  C  2  S    0.003837   0.000031  -0.083527   0.087706   0.103982
    7  C  2  S   -0.005646   0.000216   0.212825  -0.241824  -0.299450
    8  C  2  X   -0.002535  -0.000063   0.058525  -0.032511  -0.012461
    9  C  2  Y    0.003240   0.000173  -0.004494  -0.041081   0.073532
   10  C  2  Z   -0.000958  -0.000028  -0.004746   0.012947  -0.023539
   11  C  3  S    0.000941   0.000001  -0.092736   0.109897  -0.057176
   12  C  3  S    0.000137  -0.000027   0.236648  -0.305770   0.164121
   13  C  3  X   -0.000169   0.000019   0.017879   0.013330   0.099173
   14  C  3  Y    0.000215   0.000014  -0.060402   0.037343   0.019485
   15  C  3  Z   -0.000117  -0.000059  -0.007317   0.000589  -0.049355
   16  H  4  S    0.000015  -0.000035   0.032997  -0.054776  -0.080182
   17  H  5  S    0.000017  -0.000776   0.037266  -0.055620  -0.073787
   18  C  6  S    0.000545  -0.000006  -0.112576   0.032132  -0.146214
   19  C  6  S    0.000214   0.000057   0.292492  -0.086320   0.425100
   20  C  6  X    0.000160   0.000015  -0.037901   0.061209   0.004937
   21  C  6  Y    0.000031  -0.000014  -0.037767  -0.062448   0.021253
   22  C  6  Z    0.000068  -0.000058   0.053490  -0.003232   0.007076
   23  H  7  S   -0.000101  -0.000014   0.046099  -0.069909   0.042739
   24  H  8  S   -0.000149   0.000004   0.036749  -0.070697   0.047645
   25  C  9  S   -0.001989   0.000061  -0.137455  -0.102501   0.005775
   26  C  9  S   -0.007836   0.000023   0.355972   0.289335  -0.015214
   27  C  9  X    0.004365   0.000023  -0.054475   0.082217   0.132258
   28  C  9  Y    0.001117   0.000085   0.035902  -0.077532   0.102001
   29  C  9  Z   -0.001793  -0.000012  -0.001338   0.043371  -0.090229
   30  H 10  S   -0.000104  -0.000009   0.048543  -0.013174   0.128769
   31  H 11  S    0.000003  -0.000135   0.053518  -0.023779   0.108858
   32  H 12  S   -0.006539  -0.000591   0.042360   0.020278  -0.107281
   33  C 13  S    0.000170  -0.000002  -0.053252  -0.156519  -0.025101
   34  C 13  S    0.000268   0.000048   0.143440   0.439463   0.072147
   35  C 13  X   -0.000103  -0.000008  -0.038200  -0.045081   0.014753
   36  C 13  Y    0.000001   0.000014   0.023713   0.027628   0.017232
   37  C 13  Z   -0.000001   0.000018  -0.012710  -0.014467  -0.012641
   38  H 14  S   -0.000125  -0.000111   0.024739   0.103981   0.006400
   39  H 15  S   -0.000007  -0.000015   0.026872   0.107708   0.028853
   40  H 16  S   -0.000021   0.000087   0.024924   0.103875   0.026459
   41  B 17  S    0.000468   0.990406  -0.010470  -0.005671   0.020833
   42  B 17  S   -0.003366   0.039277   0.017764   0.010646  -0.040367
   43  B 17  X   -0.000738   0.000462   0.004248   0.006762  -0.002718
   44  B 17  Y   -0.002266   0.000456   0.007514   0.002870  -0.013673
   45  B 17  Z   -0.001901   0.000330   0.004712   0.002258  -0.012305
   46  H 18  S    0.000384  -0.006451   0.012140   0.014169  -0.016109
   47  H 19  S    0.000233  -0.006642   0.003869   0.000147  -0.012225
   48  H 20  S    0.000377  -0.006705   0.003264   0.003300  -0.011794

                     11         12         13         14         15
                   -0.8863    -0.7665    -0.6926    -0.6464    -0.6351
                     A          A          A          A          A   
    1  C  1  S    0.070529  -0.040180   0.086044  -0.036042  -0.029675
    2  C  1  S   -0.196429   0.115600  -0.284142   0.123888   0.087776
    3  C  1  X   -0.094698   0.150808   0.119001  -0.080810  -0.017654
    4  C  1  Y    0.019711  -0.069251   0.173016   0.040977   0.171670
    5  C  1  Z    0.028157   0.036574  -0.108800   0.204122  -0.045237
    6  C  2  S   -0.092266   0.113913  -0.026090  -0.010827   0.017949
    7  C  2  S    0.271872  -0.357656   0.080682   0.035742  -0.061167
    8  C  2  X   -0.017272   0.117057   0.021650  -0.011309   0.227027
    9  C  2  Y    0.088105   0.070680   0.103653  -0.046480  -0.092592
   10  C  2  Z   -0.008696   0.022910  -0.010702   0.231506  -0.031712
   11  C  3  S   -0.097832  -0.120077   0.002043   0.019476   0.008440
   12  C  3  S    0.291996   0.380631  -0.006825  -0.064658  -0.028463
   13  C  3  X   -0.079689   0.050456  -0.068694   0.120852   0.100190
   14  C  3  Y    0.013375   0.126492  -0.088564  -0.000707  -0.211415
   15  C  3  Z    0.032859   0.054795   0.107154   0.184293  -0.027688
   16  H  4  S    0.092955  -0.147338   0.030335   0.133975  -0.163763
   17  H  5  S    0.077742  -0.173002   0.010747  -0.123711  -0.082418
   18  C  6  S    0.067439   0.071025   0.056090  -0.019840  -0.010369
   19  C  6  S   -0.199463  -0.225699  -0.188045   0.065460   0.031048
   20  C  6  X   -0.032732  -0.090661  -0.027346   0.220933  -0.206112
   21  C  6  Y    0.082468   0.088502  -0.198801   0.098279   0.000362
   22  C  6  Z    0.003759   0.103042   0.189634   0.140353   0.045254
   23  H  7  S    0.087185   0.193283   0.028346   0.135745  -0.056430
   24  H  8  S    0.098884   0.164314  -0.066446  -0.122839  -0.151454
   25  C  9  S    0.073375  -0.025513  -0.109338   0.014653   0.062320
   26  C  9  S   -0.220922   0.078957   0.367596  -0.045186  -0.225684
   27  C  9  X    0.162370  -0.104470   0.048637   0.093948  -0.242554
   28  C  9  Y   -0.071300  -0.097286   0.107599   0.117932   0.141156
   29  C  9  Z    0.041393   0.125589  -0.028194   0.095168   0.005176
   30  H 10  S   -0.051784  -0.104561  -0.162629   0.201574  -0.119082
   31  H 11  S   -0.063362  -0.130222  -0.156046  -0.142522   0.021949
   32  H 12  S   -0.051701   0.073155  -0.256617   0.146743  -0.058495
   33  C 13  S   -0.136280   0.014099   0.025570   0.004757  -0.032353
   34  C 13  S    0.402846  -0.044788  -0.082381  -0.017816   0.112807
   35  C 13  X    0.052496  -0.057994  -0.097510   0.025290   0.248096
   36  C 13  Y   -0.018715  -0.016970   0.120337   0.116940  -0.118716
   37  C 13  Z    0.016505   0.028411  -0.061494   0.063570   0.147901
   38  H 14  S    0.122980   0.013064  -0.114119  -0.046322   0.136941
   39  H 15  S    0.134300  -0.035849  -0.039149   0.090857   0.154876
   40  H 16  S    0.126941  -0.044744  -0.059128  -0.065881   0.074771
   41  B 17  S    0.014439  -0.004782   0.063227   0.082221   0.061139
   42  B 17  S   -0.028814   0.009291  -0.144865  -0.192669  -0.143270
   43  B 17  X   -0.007764   0.011917   0.001326  -0.027795  -0.016373
   44  B 17  Y   -0.009976  -0.004011  -0.005132  -0.018993   0.006557
   45  B 17  Z   -0.006771   0.009911  -0.027121   0.021073  -0.001038
   46  H 18  S   -0.020861   0.008126  -0.051189  -0.147754  -0.097022
   47  H 19  S   -0.005878  -0.008083  -0.058873  -0.094151  -0.064224
   48  H 20  S   -0.007989   0.008994  -0.074689  -0.074626  -0.074835

                     16         17         18         19         20
                   -0.5980    -0.5645    -0.5550    -0.5328    -0.5041
                     A          A          A          A          A   
    1  C  1  S    0.006712   0.010338   0.044974   0.017733   0.026908
    2  C  1  S   -0.011946  -0.035320  -0.164183  -0.062690  -0.083993
    3  C  1  X   -0.135578   0.010097   0.091687   0.018650  -0.162434
    4  C  1  Y    0.006824  -0.011008   0.051770  -0.040335  -0.158644
    5  C  1  Z   -0.087337  -0.021250  -0.084258   0.098264   0.259350
    6  C  2  S    0.010199   0.000328  -0.017498   0.008061  -0.002578
    7  C  2  S   -0.035697  -0.001232   0.058624  -0.028360   0.012247
    8  C  2  X    0.072482  -0.035992  -0.057510   0.022031   0.070080
    9  C  2  Y   -0.068588  -0.042162   0.057092   0.191222   0.072678
   10  C  2  Z    0.047413  -0.185933   0.055552   0.303989  -0.084861
   11  C  3  S   -0.006721  -0.000588   0.014917  -0.000879  -0.021937
   12  C  3  S    0.023028   0.001705  -0.051445   0.003057   0.084766
   13  C  3  X    0.114252   0.010737   0.102086  -0.125737   0.091461
   14  C  3  Y   -0.040776   0.005405  -0.105927  -0.033582  -0.313489
[...]
                   Z -0.00659787  0.00900577  0.33763120 -0.43887716 -0.01486693
 19   H            X -0.00159876 -0.01865589  0.47124314  0.34997583 -0.54924829
                   Y -0.00718494  0.01807737 -0.22479636 -0.17069944  0.26569796
                   Z  0.00060428  0.04687904  0.19391918  0.15484805 -0.22986221
 20   H            X -0.00523165 -0.00919156  0.01813493  0.00584256  0.01679881
                   Y -0.00307305  0.01159711  0.52079603  0.34345876  0.61072039
                   Z -0.00864362  0.03846539 -0.22975155 -0.14735749 -0.27032525

 TRANS. SAYVETZ    X  0.00000006 -0.00000076  0.00000002 -0.00000002  0.00000001
                   Y -0.00000023 -0.00000034 -0.00000027  0.00000027  0.00000006
                   Z  0.00000006  0.00000065 -0.00000032  0.00000015 -0.00000002
               TOTAL  0.00000025  0.00000105  0.00000042  0.00000031  0.00000006

   ROT. SAYVETZ    X  0.00045640  0.00505694  0.01182559 -0.01462074 -0.00274682
                   Y -0.00097153 -0.02834540 -0.02095317  0.02577946 -0.00006536
                   Z  0.00041343  0.01649778  0.00986871 -0.01281654 -0.00004783
               TOTAL  0.00115026  0.03318450  0.02600522  0.03228948  0.00274801

                           51          52          53          54          55
       FREQUENCY:      3572.64     3605.89     3610.13     3633.67     3726.51  
        SYMMETRY:         A           A           A           A           A   
    REDUCED MASS:      1.03935     1.06734     1.06711     1.06843     1.10991
    IR INTENSITY:      0.00429     0.03520     0.01835     0.01402     0.00182

  1   C            X -0.00034491 -0.00193818  0.00005157 -0.00017542  0.00209456
                   Y -0.00005676 -0.00033282 -0.00005925 -0.00035828  0.00333704
                   Z  0.00014242  0.00159350 -0.00015161  0.00041360 -0.00368085
  2   C            X -0.00016671  0.04697636 -0.00268453  0.00380066 -0.06266103
                   Y  0.00007217 -0.02427534  0.00168611 -0.00134611 -0.03563397
                   Z  0.00017243 -0.04704702  0.00247056 -0.00747361 -0.05456830
  3   C            X -0.00001729 -0.00373331  0.00002938  0.02646920  0.00213735
                   Y  0.00010407  0.00475269 -0.00668899 -0.05165951  0.00594481
                   Z -0.00006069 -0.00056953  0.00372298  0.04032593  0.00395796
  4   H            X -0.00015012  0.00631736 -0.00001605  0.00138380 -0.00049159
                   Y -0.00108102  0.39575734 -0.02192505  0.04447350  0.27008333
                   Z -0.00206368  0.67480074 -0.03807806  0.07050203  0.46125744
  5   H            X  0.00221161 -0.52344356  0.02636241 -0.03312689  0.72645359
                   Y  0.00042648 -0.11546154  0.00537986 -0.00863008  0.15391368
                   Z  0.00070175 -0.14302839  0.00761770 -0.00982119  0.18724541
  6   C            X -0.00043929  0.00397941  0.06051600 -0.00900848  0.00110264
                   Y -0.00008758  0.00188998  0.03474413 -0.00309781  0.00375574
                   Z -0.00007470 -0.00057038 -0.01030955 -0.00102202  0.00964284
  7   H            X -0.00007896  0.00117324  0.00078315  0.00445902  0.00121796
                   Y -0.00137790 -0.07008846  0.09063735  0.67614180 -0.05689106
                   Z -0.00028305 -0.01373771  0.01664752  0.13726701 -0.01193094
  8   H            X  0.00047156  0.01857591 -0.03160436 -0.29453250 -0.01888811
                   Y  0.00019426  0.00621383 -0.00933870 -0.10778954 -0.00826299
                   Z  0.00094126  0.04360101 -0.05548654 -0.58040525 -0.03201070
  9   C            X -0.00217505 -0.00030590 -0.00022385 -0.00044110 -0.00024112
                   Y  0.00162467  0.00026216 -0.00154809  0.00044226 -0.00028611
                   Z -0.00036682  0.00006854  0.00108433 -0.00017217  0.00005095
 10   H            X  0.00237375 -0.03011445 -0.48123346  0.05717091 -0.04221690
                   Y  0.00233701 -0.02786198 -0.43818878  0.05592918 -0.03805019
                   Z  0.00212065 -0.02678511 -0.42071606  0.05176144 -0.03625284
 11   H            X  0.00048689 -0.01393914 -0.19664700  0.01522563  0.03151455
                   Y -0.00029802  0.00348255  0.04484819 -0.00499721 -0.00654210
                   Z -0.00151693  0.03597426  0.52469592 -0.04237865 -0.07944976
 12   H            X  0.00110816  0.00704727 -0.00184463  0.00248329 -0.01226738
                   Y  0.00272100  0.01824227 -0.00362593  0.00918237 -0.04132253
                   Z -0.00313751 -0.01867679  0.00499174 -0.00880421  0.04258403
 13   C            X  0.04567737  0.00013339  0.00007042  0.00016100  0.00008008
                   Y -0.02012490 -0.00016612 -0.00026811  0.00003784  0.00019229
                   Z  0.01612013  0.00006945 -0.00011405  0.00003478  0.00011778
 14   H            X  0.13037506  0.00060244  0.00054831  0.00003730 -0.00047147
                   Y  0.46413562  0.00172327  0.00375825  0.00023113 -0.00140478
                   Z -0.18270149 -0.00070161 -0.00155225 -0.00008874  0.00059100
 15   H            X -0.34822263 -0.00127432 -0.00053621 -0.00071459 -0.00148179
                   Y -0.31036534 -0.00092682 -0.00044841 -0.00073154 -0.00106478
                   Z -0.44043199 -0.00144130 -0.00054924 -0.00095559 -0.00170700
 16   H            X -0.29182332 -0.00090410 -0.00167899 -0.00034952  0.00119546
                   Y  0.06346506  0.00013064  0.00050551  0.00001120 -0.00026819
                   Z  0.43904077  0.00123639  0.00250355  0.00064178 -0.00132419
 17   B            X  0.00021802  0.00006703  0.00034135  0.00018638 -0.00044485
                   Y -0.00000022  0.00018833 -0.00016578  0.00007637  0.00010476
                   Z -0.00024405  0.00014355 -0.00027800  0.00008966 -0.00002489
 18   H            X -0.00397642 -0.00098253 -0.00424765 -0.00006706  0.00192802
                   Y -0.00090509 -0.00046794 -0.00236321  0.00005205  0.00074847
                   Z  0.00074859  0.00025626  0.00239047  0.00000110 -0.00020437
 19   H            X -0.00112071 -0.00109019 -0.00117799 -0.00171204  0.00256015
                   Y  0.00068640  0.00068314  0.00090604  0.00200106 -0.00130760
                   Z -0.00041829  0.00005802 -0.00032927 -0.00094575  0.00058995
 20   H            X -0.00048272  0.00016228 -0.00016251 -0.00002495  0.00030086
                   Y -0.00003713 -0.00071488 -0.00012768 -0.00014476 -0.00060748
                   Z -0.00004229  0.00001257  0.00016258 -0.00004020  0.00049512

 TRANS. SAYVETZ    X  0.00000033  0.00000060  0.00000017  0.00000033 -0.00000021
                   Y -0.00000045  0.00000015 -0.00000009 -0.00000019 -0.00000004
                   Z  0.00000053 -0.00000034  0.00000035 -0.00000025 -0.00000003
               TOTAL  0.00000077  0.00000070  0.00000040  0.00000045  0.00000022

   ROT. SAYVETZ    X  0.00015598  0.00002351  0.00000998  0.00004559 -0.00014494
                   Y -0.00012387 -0.00008930 -0.00011918  0.00001602  0.00009565
                   Z  0.00005659  0.00005969  0.00006735 -0.00004077 -0.00005860
               TOTAL  0.00020706  0.00010995  0.00013726  0.00006322  0.00018328

                           56          57          58          59          60
       FREQUENCY:      3731.09     3744.04     3747.02     3751.66     3771.10  
        SYMMETRY:         A           A           A           A           A   
    REDUCED MASS:      1.11037     1.10720     1.09996     1.11142     1.11023
    IR INTENSITY:      0.00198     0.01640     0.47274     0.00999     0.01586

  1   C            X  0.00057190 -0.00329825  0.02064901  0.00174541  0.00027852
                   Y  0.00097947 -0.00912821  0.05743401  0.00478234 -0.00015959
                   Z -0.00128664  0.00942262 -0.05950347 -0.00494212  0.00011696
  2   C            X -0.00726786 -0.00150161  0.00697458 -0.00370050 -0.00002756
                   Y -0.00367780 -0.00008050 -0.00071868 -0.00307406  0.00002659
                   Z -0.00543797 -0.00084976  0.00330201 -0.00477907 -0.00003741
  3   C            X  0.00217791  0.00017100  0.00230145 -0.02595102  0.00004096
                   Y  0.00882675  0.00078075  0.00350075 -0.06233612  0.00003983
                   Z  0.00684431  0.00042639  0.00531400 -0.06116989  0.00001457
  4   H            X -0.00002223  0.00030776 -0.00086462 -0.00245503  0.00002904
                   Y  0.02664900  0.00214703 -0.00690679  0.02694995 -0.00002749
                   Z  0.04489897  0.00447984 -0.01546949  0.05151703  0.00003677
  5   H            X  0.07972606  0.01397052 -0.06538623  0.04889050  0.00058356
                   Y  0.01644129  0.00284791 -0.01230176  0.01155940  0.00007628
                   Z  0.02107370  0.00368040 -0.01699120  0.01224039  0.00010705
  6   C            X -0.00438366 -0.00022019 -0.00068492 -0.00145819 -0.00030503
                   Y -0.02976736 -0.00072995  0.00038797 -0.00330029  0.00013207
                   Z -0.08521404 -0.00218164  0.00181518 -0.00814035 -0.00014053
  7   H            X -0.00133516 -0.00009950 -0.00001952  0.00172007 -0.00007317
                   Y -0.08622864 -0.00679124 -0.04019361  0.62724391  0.00011870
                   Z -0.01627581 -0.00134933 -0.00754423  0.12236158  0.00000298
  8   H            X -0.02570701 -0.00198110 -0.02593684  0.30408946 -0.00011861
                   Y -0.01204430 -0.00084777 -0.00868321  0.10389564 -0.00009069
                   Z -0.05559456 -0.00396455 -0.05165508  0.59806196 -0.00035703
  9   C            X -0.00025690  0.00006163 -0.00538909 -0.00069470 -0.00012450
                   Y -0.00072948  0.00039649 -0.00046940  0.00005275  0.00027211
                   Z  0.00062842 -0.00045993  0.00266299  0.00015993 -0.00024851
 10   H            X  0.33764314  0.00945079 -0.00393955  0.04721191  0.00049908
                   Y  0.30551467  0.00873108 -0.00381519  0.03807951  0.00051644
                   Z  0.28961965  0.00806546 -0.00327600  0.03660578  0.00056287
 11   H            X -0.27499674 -0.00677946  0.00680938 -0.02572505  0.00015919
                   Y  0.05415436  0.00117403 -0.00163551  0.00597768  0.00016458
                   Z  0.70712423  0.01731142 -0.01536106  0.06517143 -0.00050813
 12   H            X -0.00514464  0.03165309 -0.19540629 -0.01611034  0.00038368
                   Y -0.01500348  0.10324874 -0.64224521 -0.05162333  0.00060034
                   Z  0.01396078 -0.10341399  0.64663585  0.05184011 -0.00086764
 13   C            X  0.00026429 -0.01363741 -0.00166735 -0.00018529 -0.04694261
                   Y  0.00156808 -0.05914728 -0.00979226 -0.00106713 -0.05321202
                   Z  0.00162445 -0.06548117 -0.01034966 -0.00114697  0.05792999
 14   H            X -0.00229922  0.08489579  0.01422194  0.00154410  0.18456658
                   Y -0.00817299  0.30271936  0.05108189  0.00568602  0.65545695
                   Z  0.00344418 -0.12514956 -0.02107550 -0.00234995 -0.25937557
 15   H            X -0.00891869  0.37834073  0.05875081  0.00659126  0.04714705
                   Y -0.00817065  0.33809041  0.05296689  0.00579969  0.04250922
                   Z -0.01145189  0.47663742  0.07416973  0.00821910  0.06568683
 16   H            X  0.00742579 -0.29154535 -0.04652732 -0.00502689  0.32682562
                   Y -0.00130760  0.05710303  0.00915958  0.00098705 -0.07012418
                   Z -0.01110930  0.42937734  0.07017345  0.00761915 -0.49118733
 17   B            X  0.00022228  0.00045973 -0.00140245 -0.00029912 -0.00016550
                   Y  0.00010598 -0.00002573  0.00012256  0.00015833 -0.00003380
                   Z -0.00026841 -0.00025142  0.00110643 -0.00004086  0.00016409
 18   H            X -0.00253536 -0.00250340  0.00722019  0.00079595  0.00280358
                   Y -0.00094035 -0.00066310  0.00478582  0.00029996  0.00029369
                   Z  0.00270513  0.00118096  0.00282715  0.00029935 -0.00132274
 19   H            X -0.00032579 -0.00095461  0.00211625  0.00167685  0.00005428
                   Y  0.00011449  0.00090581 -0.00140427 -0.00224573  0.00019695
                   Z  0.00002781  0.00008703 -0.00004640  0.00082975 -0.00020094
 20   H            X -0.00003518 -0.00039615  0.00014451  0.00017825 -0.00047584
                   Y -0.00068391  0.00019293 -0.00156599 -0.00108007  0.00056172
                   Z  0.00088834 -0.00022260  0.00134531  0.00079690 -0.00062047

 TRANS. SAYVETZ    X -0.00000005  0.00000002 -0.00000011 -0.00000005 -0.00000003
                   Y -0.00000002 -0.00000004 -0.00000044 -0.00000004 -0.00000007
                   Z  0.00000000  0.00000008 -0.00000007 -0.00000001  0.00000002
               TOTAL  0.00000005  0.00000010  0.00000046  0.00000006  0.00000008

   ROT. SAYVETZ    X -0.00000905  0.00034054 -0.00187525 -0.00017750 -0.00000669
                   Y -0.00005902 -0.00013341  0.00069944  0.00006579  0.00011702
                   Z  0.00000689  0.00009773 -0.00045955 -0.00005828 -0.00005084
               TOTAL  0.00006011  0.00037857  0.00205353  0.00019807  0.00012776

 REFERENCE ON SAYVETZ CONDITIONS - A. SAYVETZ, J.CHEM.PHYS., 7, 383-389(1939).

 NOTE - THE MODES J,K ARE ORTHONORMALIZED ACCORDING TO
 SUM ON I   M(I) * (X(I,J)*X(I,K) + Y(I,J)*Y(I,K) + Z(I,J)*Z(I,K)) = DELTA(J,K)

  MODE FREQ(CM**-1)  SYMMETRY  RED. MASS  IR INTENS.
     1      71.409    A        2.310152    0.062491
     2      35.651    A        2.778998    0.095775
     3       0.007    A        4.805452    0.000000
     4       0.002    A        4.805530    0.000000
     5       0.007    A        4.805461    0.000000
     6       8.523    A        3.155654    0.012044
     7     115.101    A        1.395877    0.093704
     8     184.483    A        1.389638    0.155807
     9     231.625    A        1.477031    0.247903
    10     243.347    A        3.045495    0.670792
    11     290.859    A        1.833264    0.140113
    12     334.673    A        2.529831    0.003219
    13     346.207    A        2.352808    0.123915
    14     394.194    A        2.962370    0.104686
    15     531.776    A        2.624421    0.360629
    16     658.315    A        3.472319    0.026660
    17     767.421    A        2.193801    0.025614
    18     906.696    A        1.129039    0.710881
    19     934.290    A        1.742619    0.069888
    20    1006.528    A        1.817211    0.079707
    21    1018.743    A        1.465297    0.163770
    22    1052.197    A        1.428815    0.015321
    23    1087.896    A        2.134943    0.031878
    24    1122.071    A        1.525449    0.014969
    25    1123.838    A        1.390280    0.260462
    26    1207.911    A        1.339407    0.226689
    27    1241.567    A        1.485844    0.114105
    28    1249.565    A        1.367066    0.063090
    29    1298.387    A        1.654591    0.033744
    30    1372.859    A        1.216978    0.132003
    31    1381.664    A        1.958452    0.118412
    32    1430.095    A        1.142672    6.116971
    33    1466.493    A        1.218829    0.126442
    34    1487.287    A        1.264385    0.010190
    35    1506.084    A        1.440178    0.017711
    36    1534.898    A        1.097205    0.395100
    37    1540.298    A        1.076148    0.337210
    38    1613.844    A        1.849856    0.093987
    39    1627.782    A        1.705518    0.005960
    40    1642.194    A        1.917246    0.021014
    41    1716.992    A        1.311853    0.030473
    42    1799.467    A        1.087819    0.064134
    43    1803.295    A        1.083015    0.046071
    44    1806.713    A        1.062371    0.105469
    45    1812.370    A        1.109035    0.001920
    46    1830.354    A        1.125666    0.008160
    47    1915.254    A        5.218457    0.268430
    48    3100.175    A        1.019271    0.041697
    49    3278.431    A        1.118346    0.424518
    50    3315.911    A        1.132005    0.626801
    51    3572.639    A        1.039349    0.004293
    52    3605.891    A        1.067341    0.035202
    53    3610.131    A        1.067112    0.018348
    54    3633.668    A        1.068429    0.014025
    55    3726.508    A        1.109908    0.001816
    56    3731.087    A        1.110367    0.001983
    57    3744.036    A        1.107196    0.016405
    58    3747.018    A        1.099965    0.472735
    59    3751.665    A        1.111421    0.009995
    60    3771.105    A        1.110233    0.015862

     -------------------------------
     THERMOCHEMISTRY AT T=  298.15 K
     -------------------------------

 USING IDEAL GAS, RIGID ROTOR, HARMONIC NORMAL MODE APPROXIMATIONS.
 P=  1.01325E+05 PASCAL.
 ALL FREQUENCIES ARE SCALED BY   1.00000
 THE MOMENTS OF INERTIA ARE (IN AMU*BOHR**2)
            468.74920           767.33732           908.09306
 THE ROTATIONAL SYMMETRY NUMBER IS  1.0
 THE ROTATIONAL CONSTANTS ARE (IN GHZ)
      3.84659     2.34980     1.98558
      7 -     60 VIBRATIONAL MODES ARE USED IN THERMOCHEMISTRY.
 THE HARMONIC ZERO POINT ENERGY IS (SCALED BY   1.000)
        0.212380 HARTREE/MOLECULE    46611.949889 CM**-1/MOLECULE 
      133.270386 KCAL/MOL              557.603295 KJ/MOL

               Q               LN Q
 ELEC.     1.00000E+00       0.000000
 TRANS.    3.70351E+07      17.427377
 ROT.      2.04583E+05      12.228730
 VIB.      2.57094E+01       3.246859
 TOT.      1.94794E+14      32.902966

              E         H         G         CV        CP        S
           KJ/MOL    KJ/MOL    KJ/MOL   J/MOL-K   J/MOL-K   J/MOL-K
 ELEC.      0.000     0.000     0.000     0.000     0.000     0.000
 TRANS.     3.718     6.197   -43.201    12.472    20.786   165.684
 ROT.       3.718     3.718   -30.314    12.472    12.472   114.146
 VIB.     569.691   569.691   549.555    88.039    88.039    67.539
 TOTAL    577.128   579.607   476.039   112.982   121.296   347.369
 VIB. THERMAL CORRECTION E(T)-E(0) = H(T)-H(0) =     12087.892 J/MOL

              E         H         G         CV        CP        S
         KCAL/MOL  KCAL/MOL  KCAL/MOL CAL/MOL-K CAL/MOL-K CAL/MOL-K
 ELEC.      0.000     0.000     0.000     0.000     0.000     0.000
 TRANS.     0.889     1.481   -10.325     2.981     4.968    39.600
 ROT.       0.889     0.889    -7.245     2.981     2.981    27.282
 VIB.     136.159   136.159   131.347    21.042    21.042    16.142
 TOTAL    137.937   138.529   113.776    27.003    28.991    83.023
 VIB. THERMAL CORRECTION E(T)-E(0) = H(T)-H(0) =      2889.075 CAL/MOL

     *******************************************************
     * THIS IS NOT A STATIONARY POINT ON THE MOLECULAR PES *
     *     THE VIBRATIONAL ANALYSIS IS NOT VALID !!!       *
     *******************************************************
 ......END OF NORMAL COORDINATE ANALYSIS......
 STEP CPU TIME =     0.01 TOTAL CPU TIME =        136.6 (      2.3 MIN)
 TOTAL WALL CLOCK TIME=        137.2 SECONDS, CPU UTILIZATION IS    99.53%
               580000  WORDS OF DYNAMIC MEMORY USED
 EXECUTION OF GAMESS TERMINATED NORMALLY Tue Nov 16 07:05:47 2021
 DDI: 263640 bytes (0.3 MB / 0 MWords) used by master data server.

 ----------------------------------------
 CPU timing information for all processes
 ========================================
 0: 134.54 + 2.505 = 136.559
 ----------------------------------------
 ddikick.x: exited gracefully.
----- accounting info -----
Files used on the master node chemcompute-node-0.novalocal were:
-rw-r--r--. 1 chemcomp chemcomp     1352 Nov 16 07:03 /scratch/307547/343588.F05
-rw-rw-r--. 1 chemcomp chemcomp  8100720 Nov 16 07:05 /scratch/307547/343588.F08
-rw-rw-r--. 1 chemcomp chemcomp 85196800 Nov 16 07:05 /scratch/307547/343588.F10
-rw-rw-r--. 1 chemcomp chemcomp   564960 Nov 16 07:05 /scratch/307547/343588.F18
Tue Nov 16 07:05:50 UTC 2021
0.116u 0.077s 2:20.69 0.1%	0+0k 8+216io 0pf+0w
Finishing Up...
Looking for IR data...
Looking for Raman data...
vibramans not found
Looking for thermodynamics data...
Looking for UV-Vis data...
307547
