----- GAMESS execution script 'rungms' -----
This job is running on host chemcompute-node-0.novalocal
under operating system Linux at Tue Nov 16 07:20:03 UTC 2021
SLURM has assigned the following compute nodes to this run:
chemcompute-node-0
Available scratch disk space (Kbyte units) at beginning of the job is
Filesystem     1K-blocks     Used Available Use% Mounted on
/dev/sda1       62903276 16698872  46204404  27% /
GAMESS temporary binary files will be written to /scratch/307572
GAMESS supplementary output files will be written to /data/slurm/343613
Copying input file 343613.inp to your run's scratch directory...
The generated host list is
chemcompute-node-0.novalocal

 Distributed Data Interface kickoff program.
 Initiating 1 compute processes on 1 nodes to run the following command:
 /data/gamess-2019R1-ddi/gamess.00.x 343613 

          ******************************************************
          *         GAMESS VERSION = 30 JUN 2019 (R1)          *
          *             FROM IOWA STATE UNIVERSITY             *
          * M.W.SCHMIDT, K.K.BALDRIDGE, J.A.BOATZ, S.T.ELBERT, *
          *   M.S.GORDON, J.H.JENSEN, S.KOSEKI, N.MATSUNAGA,   *
          *          K.A.NGUYEN, S.J.SU, T.L.WINDUS,           *
          *       TOGETHER WITH M.DUPUIS, J.A.MONTGOMERY       *
          *         J.COMPUT.CHEM.  14, 1347-1363(1993)        *
          **************** 64 BIT LINUX VERSION ****************

  SINCE 1993, STUDENTS AND POSTDOCS WORKING AT IOWA STATE UNIVERSITY
  AND ALSO IN THEIR VARIOUS JOBS AFTER LEAVING ISU HAVE MADE IMPORTANT
  CONTRIBUTIONS TO THE CODE:
     IVANA ADAMOVIC, CHRISTINE AIKENS, YURI ALEXEEV, POOJA ARORA,
     ANDREY ASADCHEV, ROB BELL, PRADIPTA BANDYOPADHYAY, JONATHAN BENTZ,
     COLLEEN BERTONI, BRETT BODE, KURT BRORSEN, CALEB CARLIN, GALINA CHABAN,
     WEI CHEN, CHEOL HO CHOI, PAUL DAY, ALBERT DEFUSCO, NUWAN DESILVA,
     TIM DUDLEY, DMITRI FEDOROV, ALEX FINDLATER, GRAHAM FLETCHER, 
     MARK FREITAG, KURT GLAESEMANN, ANASTASIA GUNINA,
     DAN KEMP, GRANT MERRILL, NORIYUKI MINEZAWA, JONATHAN MULLIN,
     TAKESHI NAGATA, SEAN NEDD, HEATHER NETZLOFF, BOSILJKA NJEGIC, RYAN OLSON,
     MIKE PAK, BUU PHAM,
     SPENCER PRUITT, LUKE ROSKOP, JIM SHOEMAKER, LYUDMILA SLIPCHENKO,
     TONY SMITH, SAROM SOK LEANG, JIE SONG, TETSUYA TAKETSUGU, SIMON WEBB,
     PENG XU, SOOHAENG YOO, FEDERICO ZAHARIEV

  ADDITIONAL CODE HAS BEEN PROVIDED BY COLLABORATORS IN OTHER GROUPS:
     IOWA STATE UNIVERSITY:
          JOE IVANIC, AARON WEST, LAIMUTIS BYTAUTAS, KLAUS RUEDENBERG
     UNIVERSITY OF TOKYO: KIMIHIKO HIRAO, TAKAHITO NAKAJIMA,
          TAKAO TSUNEDA, MUNEAKI KAMIYA, SUSUMU YANAGISAWA,
          KIYOSHI YAGI, MAHITO CHIBA, SEIKEN TOKURA, NAOAKI KAWAKAMI
     UNIVERSITY OF AARHUS: FRANK JENSEN
     UNIVERSITY OF IOWA: VISVALDAS KAIRYS, HUI LI
     NATIONAL INST. OF STANDARDS AND TECHNOLOGY: WALT STEVENS, DAVID GARMER
     UNIVERSITY OF PISA: BENEDETTA MENNUCCI, JACOPO TOMASI
     UNIVERSITY OF MEMPHIS: HENRY KURTZ, PRAKASHAN KORAMBATH
     UNIVERSITY OF ALBERTA: TOBY ZENG, MARIUSZ KLOBUKOWSKI
     UNIVERSITY OF NEW ENGLAND: MARK SPACKMAN
     MIE UNIVERSITY: HIROAKI UMEDA
     NAT. INST. OF ADVANCED INDUSTRIAL SCIENCE AND TECHNOLOGY: KAZUO KITAURA
     MICHIGAN STATE UNIVERSITY:
          KAROL KOWALSKI, MARTA WLOCH, JEFFREY GOUR, JESSE LUTZ,
          WEI LI, JUN SHEN, J. EMILIANO DEUSTUA, PIOTR PIECUCH
     UNIVERSITY OF MINNESOTA:
          YINAN SHU
     UNIVERSITY OF SILESIA: MONIKA MUSIAL, STANISLAW KUCHARSKI
     FACULTES UNIVERSITAIRES NOTRE-DAME DE LA PAIX:
          OLIVIER QUINET, BENOIT CHAMPAGNE
     UNIVERSITY OF CALIFORNIA - SANTA BARBARA: BERNARD KIRTMAN
     INSTITUTE FOR MOLECULAR SCIENCE:
          KAZUYA ISHIMURA, MICHIO KATOUDA, AND SHIGERU NAGASE
     UNIVERSITY OF NOTRE DAME: ANNA POMOGAEVA, DAN CHIPMAN
     KYUSHU UNIVERSITY:
          HARUYUKI NAKANO,
          FENG LONG GU, JACEK KORCHOWIEC, MARCIN MAKOWSKI, AND YURIKO AOKI,
          HIROTOSHI MORI AND EISAKU MIYOSHI
     PENNSYLVANIA STATE UNIVERSITY:
          TZVETELIN IORDANOV, CHET SWALINA, JONATHAN SKONE,
          SHARON HAMMES-SCHIFFER
     WASEDA UNIVERSITY:
          MASATO KOBAYASHI, TOMOKO AKAMA, TSUGUKI TOUMA,
          TAKESHI YOSHIKAWA, YASUHIRO IKABATA, JUNJI SEINO,
          YUYA NAKAJIMA, HIROMI NAKAI
     NANJING UNIVERSITY: SHUHUA LI
     UNIVERSITY OF NEBRASKA:
          PEIFENG SU, DEJUN SI, NANDUN THELLAMUREGE, YALI WANG, HUI LI
     UNIVERSITY OF ZURICH: ROBERTO PEVERATI, KIM BALDRIDGE
     N. COPERNICUS UNIVERSITY AND JACKSON STATE UNIVERSITY:
          MARIA BARYSZ
     UNIVERSITY OF COPENHAGEN: Jimmy Kromann, CASPER STEINMANN
     TOKYO INSTITUTE OF TECHNOLOGY: HIROYA NAKATA
     NAGOYA UNIVERSITY: YOSHIO NISHIMOTO, STEPHAN IRLE
     MOSCOW STATE UNIVERSITY: VLADIMIR MIRONOV
     A.N.NESMEYANOV INSTITUTE OF ORGANOELEMENT COMPOUNDS OF RUSSIAN ACADEMY OF SCIENCES:
          IGOR S. GERASIMOV

 EXECUTION OF GAMESS BEGUN Tue Nov 16 07:20:04 2021

            ECHO OF THE FIRST FEW INPUT CARDS -
 INPUT CARD>!File created by the GAMESS Input Deck Generator Plugin for Avogadro            
 INPUT CARD> $BASIS GBASIS=STO NGAUSS=3 $END                                                
 INPUT CARD> $CONTRL SCFTYP=RHF RUNTYP=SADPOINT $END                                        
 INPUT CARD> $STATPT hssend=.t. OPTTOL=0.0005 NSTEP=50 $END                                 
 INPUT CARD> $STATPT HESS=calc ihrep=5 $END                                                 
 INPUT CARD> $FORCE nvib=2 $END                                                             
 INPUT CARD> $ZMAT DLC=.t. auto=.t. nonvdw(1)=1,17,9,18,1,9,9,13,17,18 $END                 
 INPUT CARD>!$ZMAT IFZMAT(1)=1,1,17,1,9,18 fvalue(1)=2.00,2.00 $END                         
 INPUT CARD>                                                                                
 INPUT CARD>                                                                                
 INPUT CARD> $DATA                                                                          
 INPUT CARD>Title                                                                           
 INPUT CARD>C1                                                                              
 INPUT CARD>C     6.0    -5.85534763    -0.29922968     0.81461990                          
 INPUT CARD>C     6.0    -6.70306301     0.96249431     0.65426576                          
 INPUT CARD>C     6.0    -5.96784830     1.76162696    -0.45425114                          
 INPUT CARD>H     1.0    -6.70374012     1.50842178     1.59818876                          
 INPUT CARD>H     1.0    -7.73618746     0.74501574     0.39427793                          
 INPUT CARD>C     6.0    -4.52851677     1.18566692    -0.49132779                          
 INPUT CARD>H     1.0    -5.96807861     2.82915592    -0.25223374                          
 INPUT CARD>H     1.0    -6.45446777     1.60058951    -1.41175675                          
 INPUT CARD>C     6.0    -4.64623404    -0.18397591     0.19672097                          
 INPUT CARD>H     1.0    -3.84285951     1.79691339     0.09534418                          
 INPUT CARD>H     1.0    -4.12975025     1.10938692    -1.49962306                          
 INPUT CARD>H     1.0    -6.08055544    -1.04117894     1.56907392                          
 INPUT CARD>C     6.0    -3.39914989    -1.00860393     0.50007826                          
 INPUT CARD>H     1.0    -3.66706061    -1.98516190     0.88972771                          
 INPUT CARD>H     1.0    -2.80714846    -0.48192021     1.24632370                          
 INPUT CARD>H     1.0    -2.79424167    -1.13620222    -0.39232942                          
 INPUT CARD>B     5.0    -5.86568689    -1.36298823    -0.87898892                          
 INPUT CARD>H     1.0    -4.93766546    -1.15011513    -1.53002238                          
 INPUT CARD>H     1.0    -6.83915138    -0.90460950    -1.29580569                          
 INPUT CARD>H     1.0    -5.89687300    -2.42227936    -0.42154202                          
 INPUT CARD> $END                                                                           
    1000000 WORDS OF MEMORY AVAILABLE

     BASIS OPTIONS
     -------------
     GBASIS=STO          IGAUSS=       3      POLAR=NONE    
     NDFUNC=       0     NFFUNC=       0     DIFFSP=       F
     NPFUNC=       0      DIFFS=       F     BASNAM=        


     RUN TITLE
     ---------
 Title                                                                           

 THE POINT GROUP OF THE MOLECULE IS C1      
 THE ORDER OF THE PRINCIPAL AXIS IS     0

 ATOM      ATOMIC                      COORDINATES (BOHR)
           CHARGE         X                   Y                   Z
 C           6.0   -11.0650025836       -0.5654621026        1.5394083951
 C           6.0   -12.6669523673        1.8188505106        1.2363830095
 C           6.0   -11.2775980233        3.3289922470       -0.8584101842
 H           1.0   -12.6682319197        2.8505038381        3.0201388331
 H           1.0   -14.6192744891        1.4078756051        0.7450772507
 C           6.0    -8.5576558261        2.2405855915       -0.9284748933
 H           1.0   -11.2780332461        5.3463294653       -0.4766526535
 H           1.0   -12.1971754819        3.0246755927       -2.6678334188
 C           6.0    -8.7801092104       -0.3476640582        0.3717487293
 H           1.0    -7.2619514832        3.3956739308        0.1801743747
 H           1.0    -7.8040963702        2.0964372932       -2.8338766683
 H           1.0   -11.4905836348       -1.9675429008        2.9651197633
 C           6.0    -6.4234618833       -1.9059850578        0.9450108838
 H           1.0    -6.9297397333       -3.7514120323        1.6813415756
 H           1.0    -5.3047413963       -0.9106971448        2.3552102850
 H           1.0    -5.2803510998       -2.1471108624       -0.7413951007
 B           5.0   -11.0845409519       -2.5756742792       -1.6610482050
 H           1.0    -9.3308347384       -2.1734024500       -2.8913230533
 H           1.0   -12.9241220967       -1.7094640809       -2.4487176874
 H           1.0   -11.1434741544       -4.5774442561       -0.7965989101

          INTERNUCLEAR DISTANCES (ANGS.)
          ------------------------------

                1 C          2 C          3 C          4 H          5 H     

   1 C       0.0000000    1.5284902 *  2.4227712 *  2.1450766 *  2.1919613 *
   2 C       1.5284902 *  0.0000000    1.5517614 *  1.0904256 *  1.0873071 *
   3 C       2.4227712 *  1.5517614 *  0.0000000    2.1950306 *  2.2091907 *
   4 H       2.1450766 *  1.0904256 *  2.1950306 *  0.0000000    1.7601527 *
   5 H       2.1919613 *  1.0873071 *  2.2091907 *  1.7601527 *  0.0000000  
   6 C       2.3813646 *  2.4679631 *  1.5507353 *  3.0334546    3.3567279  
   7 H       3.3072166    2.2014470 *  1.0864756 *  2.3894769 *  2.8085275 *
   8 H       2.9874757 *  2.1765602 *  1.0860702 *  3.0216558    2.3741468 *
   9 C       1.3627319 *  2.3988094 *  2.4404507 *  3.0102580    3.2326253  
  10 H       2.9935400 *  3.0314044    2.1951942 *  3.2444425    4.0439897  
  11 H       3.2121033    3.3589810    2.2128769 *  4.0473560    4.0897453  
  12 H       1.0818540 *  2.2889072 *  3.4586512    2.6248182 *  2.7040256 *
  13 C       2.5758602 *  3.8503044    3.8965543    4.2966943    4.6793451  
  14 H       2.7634415 *  4.2380927    4.5976440    4.6827840    4.9251532  
  15 H       3.0840334    4.1970247    4.2326684    4.3896124    5.1504154  
  16 H       3.3952348    4.5583739    4.2980260    5.1225362    5.3460790  
  17 B       2.0000000 *  2.9085972 *  3.1550054    3.8837788    3.0925170  
  18 H       2.6577235 *  3.5143793    3.2705966    4.4690651    3.8892388  
  19 H       2.4058784 *  2.7032157 *  2.9285150 *  3.7704456    2.5263254 *
  20 H       2.4570634 *  3.6419771    4.1846361    4.4922999    3.7523857  

                6 C          7 H          8 H          9 C         10 H     

   1 C       2.3813646 *  3.3072166    2.9874757 *  1.3627319 *  2.9935400 *
   2 C       2.4679631 *  2.2014470 *  2.1765602 *  2.3988094 *  3.0314044  
   3 C       1.5507353 *  1.0864756 *  1.0860702 *  2.4404507 *  2.1951942 *
   4 H       3.0334546    2.3894769 *  3.0216558    3.0102580    3.2444425  
   5 H       3.3567279    2.8085275 *  2.3741468 *  3.2326253    4.0439897  
   6 C       0.0000000    2.1978536 *  2.1745431 *  1.5372670 *  1.0899230 *
   7 H       2.1978536 *  0.0000000    1.7579657 *  3.3208127    2.3880727 *
   8 H       2.1745431 *  1.7579657 *  0.0000000    3.0069226    3.0216542  
   9 C       1.5372670 *  3.3208127    3.0069226    0.0000000    2.1400024 *
  10 H       1.0899230 *  2.3880727 *  3.0216542    2.1400024 *  0.0000000  
  11 H       1.0869649 *  2.8094549 *  2.3776695 *  2.1947952 *  1.7603748 *
  12 H       3.4077737    4.2789373    4.0005128    2.1622737 *  3.9030668  
  13 C       2.6595451 *  4.6790778    4.4494911    1.5255346 *  2.8690792 *
  14 H       3.5642077    5.4567771    5.0915698    2.1640956 *  3.8685972  
  15 H       2.9603021 *  4.8166772    4.9704302    2.1383808 *  2.7550923 *
  16 H       2.8997564 *  5.0810366    4.6825758    2.1641606 *  3.1528705  
  17 B       2.9041261 *  4.2399739    3.0681098    2.0085535 *  3.8763557  
  18 H       2.5888544 *  4.3045433    3.1434141    2.0000000 *  3.5391233  
  19 H       3.2179920    3.9735141    2.5372127 *  2.7487879 *  4.2674687  
  20 H       3.8593452    5.2546463    4.1803004    2.6374892 *  4.7209883  

               11 H         12 H         13 C         14 H         15 H     

   1 C       3.2121033    1.0818540 *  2.5758602 *  2.7634415 *  3.0840334  
   2 C       3.3589810    2.2889072 *  3.8503044    4.2380927    4.1970247  
   3 C       2.2128769 *  3.4586512    3.8965543    4.5976440    4.2326684  
   4 H       4.0473560    2.6248182 *  4.2966943    4.6827840    4.3896124  
   5 H       4.0897453    2.7040256 *  4.6793451    4.9251532    5.1504154  
   6 C       1.0869649 *  3.4077737    2.6595451 *  3.5642077    2.9603021 *
   7 H       2.8094549 *  4.2789373    4.6790778    5.4567771    4.8166772  
   8 H       2.3776695 *  4.0005128    4.4494911    5.0915698    4.9704302  
   9 C       2.1947952 *  2.1622737 *  1.5255346 *  2.1640956 *  2.1383808 *
  10 H       1.7603748 *  3.9030668    2.8690792 *  3.8685972    2.7550923 *
  11 H       0.0000000    4.2246273    3.0030763    3.9369165    3.4382783  
  12 H       4.2246273    0.0000000    2.8868233 *  2.6790992 *  3.3364849  
  13 C       3.0030763    2.8868233 *  0.0000000    1.0850200 *  1.0884593 *
  14 H       3.9369165    2.6790992 *  1.0850200 *  0.0000000    1.7681474 *
  15 H       3.4382783    3.3364849    1.0884593 *  1.7681474 *  0.0000000  
  16 H       2.8376668 *  3.8283143    1.0856274 *  1.7681108 *  1.7644930 *
  17 B       3.0840398    2.4784554 *  2.8480202 *  2.8895356 *  3.8272564  
  18 H       2.3997918 *  3.3049149    2.5511496 *  2.8577842 *  3.5628198  
  19 H       3.3820966    2.9667582 *  3.8819614    4.0007886    4.7851996  
  20 H       4.0936107    2.4297591 *  3.0143794    2.6234640 *  4.0116290  

               16 H         17 B         18 H         19 H         20 H     

   1 C       3.3952348    2.0000000 *  2.6577235 *  2.4058784 *  2.4570634 *
   2 C       4.5583739    2.9085972 *  3.5143793    2.7032157 *  3.6419771  
   3 C       4.2980260    3.1550054    3.2705966    2.9285150 *  4.1846361  
   4 H       5.1225362    3.8837788    4.4690651    3.7704456    4.4922999  
   5 H       5.3460790    3.0925170    3.8892388    2.5263254 *  3.7523857  
   6 C       2.8997564 *  2.9041261 *  2.5888544 *  3.2179920    3.8593452  
   7 H       5.0810366    4.2399739    4.3045433    3.9735141    5.2546463  
   8 H       4.6825758    3.0681098    3.1434141    2.5372127 *  4.1803004  
   9 C       2.1641606 *  2.0085535 *  2.0000000 *  2.7487879 *  2.6374892 *
  10 H       3.1528705    3.8763557    3.5391233    4.2674687    4.7209883  
  11 H       2.8376668 *  3.0840398    2.3997918 *  3.3820966    4.0936107  
  12 H       3.8283143    2.4784554 *  3.3049149    2.9667582 *  2.4297591 *
  13 C       1.0856274 *  2.8480202 *  2.5511496 *  3.8819614    3.0143794  
  14 H       1.7681108 *  2.8895356 *  2.8577842 *  4.0007886    2.6234640 *
  15 H       1.7644930 *  3.8272564    3.5628198    4.7851996    4.0116290  
  16 H       0.0000000    3.1180194    2.4266859 *  4.1510480    3.3587451  
  17 B       3.1180194    0.0000000    1.1534224 *  1.1538979 *  1.1542651 *
  18 H       2.4266859 *  1.1534224 *  0.0000000    1.9315225 *  1.9409301 *
  19 H       4.1510480    1.1538979 *  1.9315225 *  0.0000000    1.9888558 *
  20 H       3.3587451    1.1542651 *  1.9409301 *  1.9888558 *  0.0000000  

  * ... LESS THAN  3.000


     ATOMIC BASIS SET
     ----------------
 THE CONTRACTED PRIMITIVE FUNCTIONS HAVE BEEN UNNORMALIZED
 THE CONTRACTED BASIS FUNCTIONS ARE NOW NORMALIZED TO UNITY

  SHELL TYPE  PRIMITIVE        EXPONENT          CONTRACTION COEFFICIENT(S)

 C         

      1   S       1            71.6168373    0.154328967295
      1   S       2            13.0450963    0.535328142282
      1   S       3             3.5305122    0.444634542185

      2   L       4             2.9412494   -0.099967229187    0.155916274999
      2   L       5             0.6834831    0.399512826089    0.607683718598
      2   L       6             0.2222899    0.700115468880    0.391957393099

 C         

      3   S       7            71.6168373    0.154328967295
      3   S       8            13.0450963    0.535328142282
      3   S       9             3.5305122    0.444634542185

      4   L      10             2.9412494   -0.099967229187    0.155916274999
      4   L      11             0.6834831    0.399512826089    0.607683718598
      4   L      12             0.2222899    0.700115468880    0.391957393099

 C         

      5   S      13            71.6168373    0.154328967295
      5   S      14            13.0450963    0.535328142282
      5   S      15             3.5305122    0.444634542185

      6   L      16             2.9412494   -0.099967229187    0.155916274999
      6   L      17             0.6834831    0.399512826089    0.607683718598
      6   L      18             0.2222899    0.700115468880    0.391957393099

 H         

      7   S      19             3.4252509    0.154328967295
      7   S      20             0.6239137    0.535328142282
      7   S      21             0.1688554    0.444634542185

 H         

      8   S      22             3.4252509    0.154328967295
      8   S      23             0.6239137    0.535328142282
      8   S      24             0.1688554    0.444634542185

 C         

      9   S      25            71.6168373    0.154328967295
      9   S      26            13.0450963    0.535328142282
      9   S      27             3.5305122    0.444634542185

     10   L      28             2.9412494   -0.099967229187    0.155916274999
     10   L      29             0.6834831    0.399512826089    0.607683718598
     10   L      30             0.2222899    0.700115468880    0.391957393099

 H         

     11   S      31             3.4252509    0.154328967295
     11   S      32             0.6239137    0.535328142282
     11   S      33             0.1688554    0.444634542185

 H         

     12   S      34             3.4252509    0.154328967295
     12   S      35             0.6239137    0.535328142282
     12   S      36             0.1688554    0.444634542185

 C         

     13   S      37            71.6168373    0.154328967295
     13   S      38            13.0450963    0.535328142282
     13   S      39             3.5305122    0.444634542185

     14   L      40             2.9412494   -0.099967229187    0.155916274999
     14   L      41             0.6834831    0.399512826089    0.607683718598
     14   L      42             0.2222899    0.700115468880    0.391957393099

 H         

     15   S      43             3.4252509    0.154328967295
     15   S      44             0.6239137    0.535328142282
     15   S      45             0.1688554    0.444634542185

 H         

     16   S      46             3.4252509    0.154328967295
     16   S      47             0.6239137    0.535328142282
     16   S      48             0.1688554    0.444634542185

 H         

     17   S      49             3.4252509    0.154328967295
     17   S      50             0.6239137    0.535328142282
     17   S      51             0.1688554    0.444634542185

 C         

     18   S      52            71.6168373    0.154328967295
     18   S      53            13.0450963    0.535328142282
     18   S      54             3.5305122    0.444634542185

     19   L      55             2.9412494   -0.099967229187    0.155916274999
     19   L      56             0.6834831    0.399512826089    0.607683718598
     19   L      57             0.2222899    0.700115468880    0.391957393099

 H         

     20   S      58             3.4252509    0.154328967295
     20   S      59             0.6239137    0.535328142282
     20   S      60             0.1688554    0.444634542185

 H         

     21   S      61             3.4252509    0.154328967295
     21   S      62             0.6239137    0.535328142282
     21   S      63             0.1688554    0.444634542185

 H         

     22   S      64             3.4252509    0.154328967295
     22   S      65             0.6239137    0.535328142282
     22   S      66             0.1688554    0.444634542185

 B         

     23   S      67            48.7911132    0.154328967295
     23   S      68             8.8873622    0.535328142282
     23   S      69             2.4052670    0.444634542185

     24   L      70             2.2369561   -0.099967229187    0.155916274999
     24   L      71             0.5198205    0.399512826089    0.607683718598
     24   L      72             0.1690618    0.700115468880    0.391957393099

 H         

     25   S      73             3.4252509    0.154328967295
     25   S      74             0.6239137    0.535328142282
     25   S      75             0.1688554    0.444634542185

 H         

     26   S      76             3.4252509    0.154328967295
     26   S      77             0.6239137    0.535328142282
     26   S      78             0.1688554    0.444634542185

 H         

     27   S      79             3.4252509    0.154328967295
     27   S      80             0.6239137    0.535328142282
     27   S      81             0.1688554    0.444634542185

 TOTAL NUMBER OF BASIS SET SHELLS             =   27
 NUMBER OF CARTESIAN GAUSSIAN BASIS FUNCTIONS =   48
 NUMBER OF ELECTRONS                          =   54
 CHARGE OF MOLECULE                           =    0
 SPIN MULTIPLICITY                            =    1
 NUMBER OF OCCUPIED ORBITALS (ALPHA)          =   27
 NUMBER OF OCCUPIED ORBITALS (BETA )          =   27
 TOTAL NUMBER OF ATOMS                        =   20
 THE NUCLEAR REPULSION ENERGY IS      309.1456631933

     $CONTRL OPTIONS
     ---------------
 SCFTYP=RHF          RUNTYP=SADPOINT     EXETYP=RUN     
 MPLEVL=       0     CITYP =NONE         CCTYP =NONE         VBTYP =NONE    
 DFTTYP=NONE         TDDFT =NONE    
 MULT  =       1     ICHARG=       0     NZVAR =       0     COORD =UNIQUE  
 PP    =NONE         RELWFN=NONE         LOCAL =NONE         NUMGRD=       F
 ISPHER=      -1     NOSYM =       0     MAXIT =      30     UNITS =ANGS    
 PLTORB=       F     MOLPLT=       F     AIMPAC=       F     FRIEND=        
 NPRINT=       7     IREST =       0     GEOM  =INPUT   
 NORMF =       0     NORMP =       0     ITOL  =      20     ICUT  =       9
 INTTYP=BEST         GRDTYP=BEST         QMTTOL= 1.0E-06

     $SYSTEM OPTIONS
     ---------------
  REPLICATED MEMORY=     1000000 WORDS (ON EVERY NODE).
 DISTRIBUTED MEMDDI=           0 MILLION WORDS IN AGGREGATE,
 MEMDDI DISTRIBUTED OVER   1 PROCESSORS IS           0 WORDS/PROCESSOR.
 TOTAL MEMORY REQUESTED ON EACH PROCESSOR=     1000000 WORDS.
 TIMLIM=      525600.00 MINUTES, OR     365.0 DAYS.
 PARALL= F  BALTYP=  DLB     KDIAG=    0  COREFL= F
 MXSEQ2=     300 MXSEQ3=     150  mem10=         0

          ----------------
          PROPERTIES INPUT
          ----------------

     MOMENTS            FIELD           POTENTIAL          DENSITY
 IEMOM =       1   IEFLD =       0   IEPOT =       0   IEDEN =       0
 WHERE =COMASS     WHERE =NUCLEI     WHERE =NUCLEI     WHERE =NUCLEI  
 OUTPUT=BOTH       OUTPUT=BOTH       OUTPUT=BOTH       OUTPUT=BOTH    
 IEMINT=       0   IEFINT=       0                     IEDINT=       0
                                                       MORB  =       0
          EXTRAPOLATION IN EFFECT
          SOSCF IN EFFECT
 ORBITAL PRINTING OPTION: NPREO=     1    48     2     1

     -------------------------------
     INTEGRAL TRANSFORMATION OPTIONS
     -------------------------------
     NWORD  =            0
     CUTOFF = 1.0E-09     MPTRAN =       0
     DIRTRF =       F     AOINTS =DUP     

          ----------------------
          INTEGRAL INPUT OPTIONS
          ----------------------
 NOPK  =       1 NORDER=       0 SCHWRZ=       T

     ------------------------------------------
     THE POINT GROUP IS C1 , NAXIS= 0, ORDER= 1
     ------------------------------------------

     DIMENSIONS OF THE SYMMETRY SUBSPACES ARE
 A   =   48

 ..... DONE SETTING UP THE RUN .....
 STEP CPU TIME =     0.05 TOTAL CPU TIME =          0.0 (      0.0 MIN)
 TOTAL WALL CLOCK TIME=          0.2 SECONDS, CPU UTILIZATION IS    25.00%


          -----------------------------
          STATIONARY POINT LOCATION RUN
          -----------------------------

 OBTAINING INITIAL HESSIAN, HESS=CALC    

     ---------------------------------
     HESSIAN MATRIX CONTROL PARAMETERS
     ---------------------------------
     METHOD=ANALYTIC   NVIB  =       2   VIBSIZ= 0.01000
     RDHESS=       F   PURIFY=       F   PRTIFC=       F
     VIBANL=       F   DECOMP=       F   PROJCT=       F
     SCLFAC= 1.00000   PRTSCN=       F   NPRT  =       0
     PULCOR=       F   NPUN  =       0   REDOVB=       T
     HSSTYP=GENERAL 
 Old integral subroutine is used

     ------------------------------
     CPHF RESPONSE SOLUTION OPTIONS
     ------------------------------
     POLAR  =       F     NWORD  =       0
     CPHF   =AO      

          ********************
          1 ELECTRON INTEGRALS
          ********************
 ...... END OF ONE-ELECTRON INTEGRALS ......
 STEP CPU TIME =     0.03 TOTAL CPU TIME =          0.1 (      0.0 MIN)
 TOTAL WALL CLOCK TIME=          0.2 SECONDS, CPU UTILIZATION IS    34.78%

          -------------
          GUESS OPTIONS
          -------------
          GUESS =HUCKEL            NORB  =       0          NORDER=       0
          MIX   =       F          PRTMO =       F          PUNMO =       F
          TOLZ  = 1.0E-08          TOLE  = 1.0E-05
          SYMDEN=       F          PURIFY=       F

 INITIAL GUESS ORBITALS GENERATED BY HUCKEL   ROUTINE.
 HUCKEL GUESS REQUIRES     39252 WORDS.

 SYMMETRIES FOR INITIAL GUESS ORBITALS FOLLOW.   BOTH SET(S).
    27 ORBITALS ARE OCCUPIED (    7 CORE ORBITALS).
     8=A        9=A       10=A       11=A       12=A       13=A       14=A   
    15=A       16=A       17=A       18=A       19=A       20=A       21=A   
    22=A       23=A       24=A       25=A       26=A       27=A       28=A   
    29=A       30=A       31=A       32=A       33=A       34=A       35=A   
    36=A       37=A   
 ...... END OF INITIAL ORBITAL SELECTION ......
 STEP CPU TIME =     0.02 TOTAL CPU TIME =          0.1 (      0.0 MIN)
 TOTAL WALL CLOCK TIME=          0.2 SECONDS, CPU UTILIZATION IS    40.00%

                    ----------------------
                    AO INTEGRAL TECHNOLOGY
                    ----------------------
     S,P,L SHELL ROTATED AXIS INTEGRALS, REPROGRAMMED BY
        KAZUYA ISHIMURA (IMS) AND JOSE SIERRA (SYNSTAR).
     S,P,D,L SHELL ROTATED AXIS INTEGRALS PROGRAMMED BY
        KAZUYA ISHIMURA (INSTITUTE FOR MOLECULAR SCIENCE).
     S,P,D,F,G SHELL TO TOTAL QUARTET ANGULAR MOMENTUM SUM 5,
        ERIC PROGRAM BY GRAHAM FLETCHER (ELORET AND NASA ADVANCED
        SUPERCOMPUTING DIVISION, AMES RESEARCH CENTER).
     S,P,D,F,G,L SHELL GENERAL RYS QUADRATURE PROGRAMMED BY
        MICHEL DUPUIS (PACIFIC NORTHWEST NATIONAL LABORATORY).

          --------------------
          2 ELECTRON INTEGRALS
          --------------------

 THE -PK- OPTION IS OFF, THE INTEGRALS ARE NOT IN SUPERMATRIX FORM.
 STORING   15000 INTEGRALS/RECORD ON DISK, USING 12 BYTES/INTEGRAL.
 TWO ELECTRON INTEGRAL EVALUATION REQUIRES   89734 WORDS OF MEMORY.
 SCHWARZ INEQUALITY OVERHEAD:      1165 INTEGRALS, T=        0.00
 II,JST,KST,LST =  1  1  1  1 NREC =         1 INTLOC =    1
 II,JST,KST,LST =  2  1  1  1 NREC =         1 INTLOC =    2
 II,JST,KST,LST =  3  1  1  1 NREC =         1 INTLOC =   34
 II,JST,KST,LST =  4  1  1  1 NREC =         1 INTLOC =  141
 II,JST,KST,LST =  5  1  1  1 NREC =         1 INTLOC = 1360
 II,JST,KST,LST =  6  1  1  1 NREC =         1 INTLOC = 1928
 II,JST,KST,LST =  7  1  1  1 NREC =         1 INTLOC = 6799
 II,JST,KST,LST =  8  1  1  1 NREC =         1 INTLOC = 8832
 II,JST,KST,LST =  9  1  1  1 NREC =         1 INTLOC =11274
 II,JST,KST,LST = 10  1  1  1 NREC =         1 INTLOC =13724
 II,JST,KST,LST = 11  1  1  1 NREC =         3 INTLOC =  682
 II,JST,KST,LST = 12  1  1  1 NREC =         3 INTLOC = 6679
 II,JST,KST,LST = 13  1  1  1 NREC =         3 INTLOC =13496
 II,JST,KST,LST = 14  1  1  1 NREC =         4 INTLOC = 5353
 II,JST,KST,LST = 15  1  1  1 NREC =         7 INTLOC = 1334
 II,JST,KST,LST = 16  1  1  1 NREC =         7 INTLOC =14618
 II,JST,KST,LST = 17  1  1  1 NREC =         8 INTLOC =14294
 II,JST,KST,LST = 18  1  1  1 NREC =        10 INTLOC =  440
 II,JST,KST,LST = 19  1  1  1 NREC =        10 INTLOC =14282
 II,JST,KST,LST = 20  1  1  1 NREC =        16 INTLOC =10537
 II,JST,KST,LST = 21  1  1  1 NREC =        18 INTLOC = 6739
 II,JST,KST,LST = 22  1  1  1 NREC =        20 INTLOC = 5275
 II,JST,KST,LST = 23  1  1  1 NREC =        22 INTLOC = 5880
 II,JST,KST,LST = 24  1  1  1 NREC =        24 INTLOC = 3607
 II,JST,KST,LST = 25  1  1  1 NREC =        34 INTLOC =14158
 II,JST,KST,LST = 26  1  1  1 NREC =        38 INTLOC = 1680
 II,JST,KST,LST = 27  1  1  1 NREC =        41 INTLOC = 7223
 SCHWARZ INEQUALITY TEST SKIPPED        7575 INTEGRAL BLOCKS.
 TOTAL NUMBER OF NONZERO TWO-ELECTRON INTEGRALS =              660741
         45 INTEGRAL RECORDS WERE STORED ON DISK FILE  8.
  ...... END OF TWO-ELECTRON INTEGRALS .....
 STEP CPU TIME =     0.24 TOTAL CPU TIME =          0.3 (      0.0 MIN)
 TOTAL WALL CLOCK TIME=          0.5 SECONDS, CPU UTILIZATION IS    69.39%

          --------------------------
                 RHF SCF CALCULATION
          --------------------------

     NUCLEAR ENERGY =       309.1456631933
     MAXIT =   30     NPUNCH=    2
     EXTRAP=T  DAMP=F  SHIFT=F  RSTRCT=F  DIIS=F  DEM=F  SOSCF=T
     DENSITY MATRIX CONV=  1.00E-05
     SOSCF WILL OPTIMIZE     567 ORBITAL ROTATIONS, SOGTOL=   0.250
     MEMORY REQUIRED FOR RHF ITERS=     49068 WORDS.

 ITER EX DEM     TOTAL ENERGY        E CHANGE  DENSITY CHANGE     ORB. GRAD
   1  0  0     -255.9798832874  -255.9798832874   0.309364111   0.000000000
          ---------------START SECOND ORDER SCF---------------
   2  1  0     -256.3258146081    -0.3459313206   0.060968494   0.022983178
   3  2  0     -256.3394917608    -0.0136771527   0.034703537   0.006134883
   4  3  0     -256.3407103183    -0.0012185575   0.005499189   0.001429465
   5  4  0     -256.3407482980    -0.0000379797   0.001699651   0.000633700
   6  5  0     -256.3407535667    -0.0000052687   0.000312161   0.000101598
   7  6  0     -256.3407539015    -0.0000003347   0.000101531   0.000030520
   8  7  0     -256.3407539222    -0.0000000208   0.000028739   0.000005355
   9  8  0     -256.3407539237    -0.0000000014   0.000008801   0.000001877
  10  9  0     -256.3407539238    -0.0000000002   0.000002093   0.000000569

          -----------------
          DENSITY CONVERGED
          -----------------
     TIME TO FORM FOCK OPERATORS=       0.1 SECONDS (       0.0 SEC/ITER)
     TIME TO SOLVE SCF EQUATIONS=       0.0 SECONDS (       0.0 SEC/ITER)

 FINAL RHF ENERGY IS     -256.3407539238 AFTER  10 ITERATIONS

          ------------
          EIGENVECTORS
          ------------

                      1          2          3          4          5
                  -11.1074   -11.0718   -11.0696   -11.0686   -11.0642
                     A          A          A          A          A   
    1  C  1  S    0.009222  -0.002337  -0.036835   0.990897   0.030635
    2  C  1  S   -0.006759   0.000030  -0.001178   0.036620  -0.004706
    3  C  1  X   -0.004230   0.000056  -0.000086   0.001814   0.002474
    4  C  1  Y   -0.000628  -0.000144  -0.000014   0.000286  -0.003546
    5  C  1  Z    0.001526   0.000116   0.000039  -0.001346   0.000361
    6  C  2  S   -0.000797  -0.000203  -0.005662  -0.029952   0.991292
    7  C  2  S    0.000049  -0.000004   0.000146  -0.006618   0.037209
    8  C  2  X   -0.000135  -0.000010  -0.000031  -0.002346   0.000175
    9  C  2  Y   -0.000030  -0.000001  -0.000071   0.003396  -0.000046
   10  C  2  Z    0.000051   0.000019  -0.000102  -0.000426   0.000248
   11  C  3  S   -0.000652  -0.000312  -0.011116  -0.003209  -0.019502
   12  C  3  S    0.000119  -0.000036  -0.005929  -0.000054  -0.006321
   13  C  3  X    0.000077  -0.000005  -0.003865  -0.000287   0.001995
   14  C  3  Y    0.000129   0.000051   0.001443   0.000158   0.002075
   15  C  3  Z   -0.000019  -0.000006   0.000154   0.000137  -0.002957
   16  H  4  S   -0.000003   0.000001   0.000057   0.000115  -0.007011
   17  H  5  S   -0.000045   0.000002  -0.000051   0.000189  -0.006932
   18  C  6  S   -0.003252  -0.006190   0.991167   0.036692   0.006584
   19  C  6  S   -0.005593  -0.000129   0.037271   0.001545   0.000443
   20  C  6  X    0.000359   0.000015   0.000234   0.000154  -0.000071
   21  C  6  Y    0.003644  -0.000010  -0.000168  -0.000054   0.000079
   22  C  6  Z   -0.001871   0.000028   0.000354  -0.000056  -0.000157
   23  H  7  S   -0.000074  -0.000008   0.000198  -0.000065   0.000258
   24  H  8  S    0.000039   0.000006   0.000152   0.000046   0.000223
   25  C  9  S    0.992127   0.004312   0.004566  -0.008588   0.000617
   26  C  9  S    0.035653  -0.005587  -0.005362  -0.007723  -0.000064
   27  C  9  X   -0.002068  -0.003598  -0.000575   0.003804   0.000066
   28  C  9  Y    0.000002   0.002385  -0.003819   0.000015  -0.000010
   29  C  9  Z    0.000653  -0.000917   0.002008  -0.002531  -0.000073
   30  H 10  S   -0.000082   0.000013  -0.007026  -0.000267  -0.000034
   31  H 11  S    0.000017   0.000063  -0.006938  -0.000315  -0.000138
   32  H 12  S    0.000060  -0.000074   0.000185  -0.006661  -0.000110
   33  C 13  S   -0.003357   0.991910   0.006098   0.002594   0.000312
   34  C 13  S   -0.005488   0.037897   0.000358   0.000385  -0.000010
   35  C 13  X    0.003362   0.000067  -0.000003  -0.000100   0.000037
   36  C 13  Y   -0.002118   0.000118   0.000037   0.000025   0.000006
   37  C 13  Z    0.000647   0.000102  -0.000036  -0.000032  -0.000002
   38  H 14  S    0.000082  -0.006964  -0.000106  -0.000108  -0.000027
   39  H 15  S   -0.000101  -0.007007  -0.000016  -0.000020  -0.000002
   40  H 16  S   -0.000031  -0.006964  -0.000093  -0.000079  -0.000008
   41  B 17  S    0.000359   0.000021   0.000003   0.000429   0.000022
   42  B 17  S   -0.002458  -0.000004   0.000103  -0.003086  -0.000030
   43  B 17  X   -0.001936  -0.000148  -0.000005   0.000651  -0.000010
   44  B 17  Y   -0.001494   0.000136  -0.000098  -0.001290  -0.000119
   45  B 17  Z   -0.001283  -0.000075   0.000135  -0.002438  -0.000073
   46  H 18  S   -0.000445  -0.000075  -0.000045   0.000129   0.000022
   47  H 19  S   -0.000000  -0.000091   0.000028   0.000435  -0.000141
   48  H 20  S    0.000169   0.000108  -0.000094   0.000456  -0.000037

                      6          7          8          9         10
                  -11.0560    -7.3087    -1.1266    -0.9957    -0.9465
                     A          A          A          A          A   
    1  C  1  S    0.003479   0.000526  -0.123418  -0.016934   0.133555
    2  C  1  S    0.000134  -0.003186   0.313741   0.047785  -0.376160
    3  C  1  X   -0.000025   0.000671   0.061300   0.089259   0.007188
    4  C  1  Y   -0.000140   0.001742   0.040231  -0.060322  -0.016764
    5  C  1  Z    0.000154   0.002348  -0.053278  -0.011949   0.004689
    6  C  2  S    0.020343   0.000032  -0.085704   0.103601   0.087293
    7  C  2  S   -0.004836   0.000072   0.222327  -0.287895  -0.250648
    8  C  2  X   -0.001906  -0.000038   0.047459  -0.020175  -0.004427
    9  C  2  Y   -0.002192   0.000054  -0.021129  -0.032156   0.073852
   10  C  2  Z    0.002979   0.000149  -0.016269   0.031923  -0.043640
   11  C  3  S    0.991718   0.000031  -0.079607   0.118536  -0.075583
   12  C  3  S    0.036991   0.000003   0.205271  -0.329204   0.215692
   13  C  3  X   -0.000056  -0.000007   0.019520   0.010322   0.085429
   14  C  3  Y    0.000077   0.000280  -0.037797   0.020699   0.013073
   15  C  3  Z   -0.000244   0.000054   0.023594  -0.027310  -0.042330
   16  H  4  S   -0.000057  -0.000115   0.041329  -0.071658  -0.070053
   17  H  5  S   -0.000013  -0.000080   0.037355  -0.068783  -0.069315
   18  C  6  S    0.012364   0.000044  -0.096651   0.031542  -0.148607
   19  C  6  S   -0.005155  -0.000016   0.252276  -0.085647   0.427637
   20  C  6  X    0.003858   0.000183  -0.033638   0.058817  -0.000122
   21  C  6  Y   -0.001616   0.000114  -0.036928  -0.059024   0.021079
   22  C  6  Z   -0.000047   0.000097   0.031071   0.012087  -0.008278
   23  H  7  S   -0.006992  -0.000095   0.035480  -0.081975   0.063648
   24  H  8  S   -0.007014  -0.000194   0.037620  -0.078792   0.057930
   25  C  9  S    0.000756   0.000457  -0.140952  -0.099237   0.000715
   26  C  9  S    0.000083  -0.002829   0.366527   0.278459   0.001640
   27  C  9  X    0.000143   0.001242  -0.066857   0.052020   0.133251
   28  C  9  Y   -0.000062   0.001625   0.024641  -0.077127   0.076176
   29  C  9  Z    0.000031   0.001631   0.017628   0.034817  -0.084661
   30  H 10  S    0.000001  -0.000129   0.048506  -0.018048   0.124969
   31  H 11  S    0.000044  -0.000004   0.043945  -0.017048   0.123301
   32  H 12  S   -0.000138  -0.000152   0.054512   0.018902  -0.109299
   33  C 13  S    0.000411   0.000048  -0.054091  -0.140761  -0.042917
   34  C 13  S   -0.000065   0.000054   0.144855   0.392390   0.121957
   35  C 13  X    0.000038   0.000193  -0.036227  -0.036303   0.012594
   36  C 13  Y   -0.000062   0.000171   0.025077   0.023584   0.014482
   37  C 13  Z    0.000025   0.000182  -0.007302  -0.004537  -0.010221
   38  H 14  S   -0.000012  -0.000299   0.026951   0.097342   0.022704
   39  H 15  S   -0.000002  -0.000148   0.027788   0.098471   0.038661
   40  H 16  S   -0.000015   0.000051   0.025674   0.094079   0.041685
   41  B 17  S    0.000020   0.989979  -0.023747  -0.014969   0.018145
   42  B 17  S   -0.000096   0.041915   0.035384   0.025277  -0.031897
   43  B 17  X    0.000010   0.001027   0.008136   0.014359   0.004971
   44  B 17  Y   -0.000163   0.000981   0.013282   0.003784  -0.007295
   45  B 17  Z    0.000019   0.000671   0.012205   0.007961  -0.019021
   46  H 18  S    0.000059  -0.007148   0.018349   0.019384   0.000208
   47  H 19  S    0.000060  -0.007012   0.011643   0.000519  -0.014148
   48  H 20  S   -0.000045  -0.007056   0.009403   0.010434  -0.013404

                     11         12         13         14         15
                   -0.8935    -0.7785    -0.7001    -0.6699    -0.6305
                     A          A          A          A          A   
    1  C  1  S    0.058361  -0.029168   0.100848   0.013045  -0.028040
    2  C  1  S   -0.162830   0.083832  -0.333481  -0.035883   0.093686
    3  C  1  X   -0.097814   0.128303   0.134902  -0.145367  -0.080058
    4  C  1  Y    0.035296  -0.111090   0.150763  -0.123719   0.195310
    5  C  1  Z    0.041133  -0.042829  -0.218458  -0.064167  -0.130067
    6  C  2  S   -0.101479   0.102060  -0.035138  -0.012934   0.011514
    7  C  2  S    0.298485  -0.316877   0.111935   0.042415  -0.037086
    8  C  2  X   -0.031966   0.073716  -0.024019  -0.153528   0.180763
    9  C  2  Y    0.061236   0.042881   0.103615  -0.067488  -0.181449
   10  C  2  Z   -0.015212  -0.123171  -0.072743  -0.056351  -0.129006
   11  C  3  S   -0.072238  -0.129062   0.005253   0.013283   0.005384
   12  C  3  S    0.212152   0.401664  -0.016150  -0.043614  -0.014035
   13  C  3  X   -0.084401  -0.038725  -0.103524  -0.047951   0.077677
   14  C  3  Y    0.015034   0.085683  -0.078574  -0.052579  -0.245134
   15  C  3  Z    0.032528  -0.095748   0.063359  -0.122135  -0.030096
   16  H  4  S    0.098266  -0.158977   0.032260  -0.042650  -0.174256
   17  H  5  S    0.099323  -0.135120   0.054760   0.138131  -0.091346
   18  C  6  S    0.074185   0.082928   0.050897  -0.016584  -0.009763
   19  C  6  S   -0.217457  -0.258726  -0.164468   0.054340   0.032307
   20  C  6  X   -0.031257  -0.154584  -0.068124   0.043033  -0.176554
   21  C  6  Y    0.046745   0.039800  -0.203100  -0.036498  -0.042087
   22  C  6  Z   -0.013887  -0.017476   0.082421  -0.205996  -0.019950
   23  H  7  S    0.074611   0.177024  -0.050910  -0.070506  -0.195850
   24  H  8  S    0.065326   0.186365  -0.003871   0.087280   0.014771
   25  C  9  S    0.061816  -0.018742  -0.104597   0.031409   0.062122
   26  C  9  S   -0.182513   0.053247   0.348116  -0.098861  -0.222508
   27  C  9  X    0.151090  -0.117165   0.014924   0.015490  -0.193499
   28  C  9  Y   -0.090512  -0.123996   0.044924  -0.111823   0.163713
   29  C  9  Z    0.014982   0.072041  -0.085051  -0.186056  -0.060917
   30  H 10  S   -0.063291  -0.140209  -0.141991  -0.056751  -0.101019
   31  H 11  S   -0.064617  -0.112886  -0.119448   0.173132  -0.016776
   32  H 12  S   -0.040579   0.042768  -0.322192   0.034684  -0.103108
   33  C 13  S   -0.149676   0.005873   0.025212   0.002371  -0.029795
   34  C 13  S    0.435990  -0.017831  -0.078403  -0.008806   0.099420
   35  C 13  X    0.048254  -0.043158  -0.091739  -0.004369   0.254946
   36  C 13  Y   -0.026721  -0.031346   0.083236  -0.073918  -0.132776
   37  C 13  Z    0.013873   0.016181  -0.070542  -0.108163   0.044515
   38  H 14  S    0.135929   0.022945  -0.087271   0.022904   0.090154
   39  H 15  S    0.141229  -0.025368  -0.070919  -0.086707   0.120480
   40  H 16  S    0.137463  -0.028104  -0.031993   0.069993   0.129436
   41  B 17  S    0.019522  -0.032785  -0.025037  -0.149890   0.008230
   42  B 17  S   -0.035638   0.067812   0.054759   0.341005  -0.017336
   43  B 17  X   -0.006458   0.009922   0.040736   0.022517  -0.039817
   44  B 17  Y   -0.013290   0.007446   0.028282   0.019960   0.034481
   45  B 17  Z   -0.011876   0.018237  -0.025066  -0.006845  -0.009428
   46  H 18  S   -0.015546   0.024685   0.074847   0.205718  -0.033299
   47  H 19  S   -0.009449   0.022382   0.016649   0.168399   0.030862
   48  H 20  S   -0.009303   0.031284  -0.004826   0.153716  -0.033923

                     16         17         18         19         20
                   -0.5988    -0.5665    -0.5610    -0.5367    -0.5040
                     A          A          A          A          A   
    1  C  1  S    0.015827   0.022476   0.010242   0.008429   0.029591
    2  C  1  S   -0.058659  -0.090816  -0.034105  -0.031663  -0.092510
    3  C  1  X    0.030736   0.158624  -0.011444   0.031962  -0.232412
    4  C  1  Y    0.035886   0.016714  -0.024023   0.031342  -0.054614
    5  C  1  Z   -0.086412  -0.102309  -0.059778   0.051655   0.239779
    6  C  2  S   -0.001242  -0.018405   0.000735   0.001515  -0.003352
    7  C  2  S    0.005570   0.062522  -0.002085  -0.007235   0.017147
    8  C  2  X    0.159287  -0.116583  -0.131740   0.138855   0.169727
    9  C  2  Y    0.119068   0.039890  -0.075315   0.128601   0.015687
   10  C  2  Z    0.120249  -0.023306  -0.182926   0.261515  -0.038344
   11  C  3  S    0.006201   0.017181   0.003405   0.001155  -0.024717
   12  C  3  S   -0.019088  -0.058949  -0.012236  -0.004616   0.095885
   13  C  3  X    0.151339   0.016401  -0.059699   0.049646   0.059112
   14  C  3  Y    0.110082  -0.086189  -0.006333   0.008669  -0.275533
   15  C  3  Z    0.254183  -0.040883   0.006786  -0.049057   0.031978
   16  H  4  S    0.137806   0.025289  -0.170356   0.261364  -0.015653
   17  H  5  S   -0.156730   0.115837   0.160153  -0.196558  -0.132442
   18  C  6  S   -0.006057  -0.022873   0.001096   0.002392  -0.011592
   19  C  6  S    0.021078   0.078957  -0.005962  -0.007920   0.051420
   20  C  6  X   -0.022702   0.010766   0.099883  -0.096844  -0.186435
   21  C  6  Y    0.158736   0.089106   0.103181  -0.119597  -0.078535
   22  C  6  Z    0.159866  -0.138482   0.213535  -0.266218   0.172008
   23  H  7  S    0.122131  -0.105883  -0.008877  -0.002639  -0.209315
   24  H  8  S   -0.247841   0.008868   0.018667   0.018642   0.031041
   25  C  9  S    0.036596  -0.001211   0.010716   0.004848   0.002434
   26  C  9  S   -0.133930  -0.005724  -0.040425  -0.015868   0.013790
   27  C  9  X   -0.127044  -0.147476   0.011544  -0.007991   0.344095
   28  C  9  Y   -0.026553  -0.114679   0.047265   0.026705   0.040021
   29  C  9  Z   -0.017121   0.120290   0.081788   0.005033  -0.086933
   30  H 10  S    0.141795   0.015252   0.213381  -0.244302  -0.045743
   31  H 11  S   -0.119734   0.135846  -0.150471   0.194577  -0.185371
   32  H 12  S   -0.091609  -0.135671  -0.033382  -0.008371   0.200266
   33  C 13  S   -0.004606  -0.002516   0.003595   0.002459  -0.005154
   34  C 13  S    0.014537   0.008771  -0.012879  -0.008969   0.019993
   35  C 13  X    0.037747  -0.229421   0.069776   0.079440  -0.299515
   36  C 13  Y   -0.187091  -0.300791   0.211711   0.199385  -0.027322
   37  C 13  Z   -0.012196   0.289481   0.319610   0.281217   0.069916
   38  H 14  S    0.133526   0.363958  -0.081631  -0.090416   0.131831
   39  H 15  S   -0.054939  -0.059759   0.316880   0.297455  -0.113689
   40  H 16  S    0.049593  -0.274494  -0.220286  -0.185694  -0.200629
   41  B 17  S   -0.114166   0.031481  -0.075775  -0.044916  -0.022376
   42  B 17  S    0.266999  -0.075148   0.181914   0.106596   0.055567
   43  B 17  X    0.017811   0.014131  -0.078913   0.006770  -0.001391
   44  B 17  Y   -0.028501  -0.000709  -0.011400  -0.003558  -0.057802
   45  B 17  Z   -0.012208   0.023609  -0.007251  -0.042849  -0.032752
   46  H 18  S    0.148045  -0.059209   0.018893   0.088743   0.050784
   47  H 19  S    0.115704  -0.054778   0.163044   0.057625   0.032569
   48  H 20  S    0.158665  -0.030475   0.108964   0.051085   0.081869

                     21         22         23         24         25
                   -0.4662    -0.4644    -0.4598    -0.4497    -0.3961
                     A          A          A          A          A   
    1  C  1  S   -0.027870   0.009457  -0.003145   0.006290   0.003604
    2  C  1  S    0.120346  -0.046574   0.012857  -0.020324  -0.007203
    3  C  1  X   -0.155702   0.231823   0.074134   0.001161  -0.014578
    4  C  1  Y    0.355019  -0.061126  -0.098588   0.092675   0.095223
    5  C  1  Z   -0.078387   0.048060  -0.037159  -0.082470  -0.056622
    6  C  2  S   -0.013031   0.003563  -0.030153  -0.006878  -0.003745
    7  C  2  S    0.052398  -0.016099   0.123597   0.021880   0.013171
    8  C  2  X    0.309176   0.013849   0.217694  -0.094700   0.000350
    9  C  2  Y   -0.247410   0.230783   0.204752  -0.184113  -0.085752
   10  C  2  Z    0.065840   0.148059  -0.329577   0.121572   0.023632
   11  C  3  S    0.007940   0.003192  -0.015394  -0.006256   0.001578
   12  C  3  S   -0.036775  -0.012982   0.067672   0.027883  -0.008858
   13  C  3  X   -0.192559  -0.152814  -0.127582   0.408980   0.004886
   14  C  3  Y    0.107151  -0.265822  -0.236217  -0.087310   0.061382
   15  C  3  Z   -0.136238  -0.261250   0.344364  -0.118550  -0.042707
   16  H  4  S   -0.040407   0.247253  -0.128924   0.022154  -0.024634
   17  H  5  S   -0.231918  -0.098245  -0.111322   0.111604   0.017284
   18  C  6  S    0.033962  -0.000039   0.006501  -0.002620  -0.005975
   19  C  6  S   -0.134777  -0.003643  -0.028038   0.017031   0.023202
   20  C  6  X    0.303591   0.094696   0.117198  -0.303311  -0.009244
   21  C  6  Y    0.096791   0.137954   0.144910   0.354516  -0.098135
   22  C  6  Z   -0.052496   0.136603  -0.217016  -0.060573  -0.047767
   23  H  7  S    0.065126  -0.326450  -0.141712  -0.101034   0.053430
   24  H  8  S    0.175057   0.334105  -0.181636  -0.053467   0.006716
   25  C  9  S    0.005303   0.009470   0.024632  -0.001460  -0.011007
   26  C  9  S   -0.019665  -0.047490  -0.103144   0.002347   0.039487
   27  C  9  X    0.150035  -0.118148   0.028528   0.068305   0.042612
   28  C  9  Y   -0.117373  -0.003975  -0.251583  -0.302841   0.096997
   29  C  9  Z    0.080098   0.155011   0.106143   0.155855   0.045253
   30  H 10  S    0.157699   0.222116   0.024898  -0.012559  -0.097966
   31  H 11  S    0.089480  -0.098787   0.226714  -0.072354   0.052093
   32  H 12  S   -0.211026  -0.000227   0.031616  -0.156191  -0.100170
   33  C 13  S   -0.009463   0.006212  -0.004695  -0.016629  -0.000518
   34  C 13  S    0.036658  -0.024501   0.017767   0.064469   0.003165
   35  C 13  X   -0.191836   0.119234  -0.026438  -0.125660  -0.009212
   36  C 13  Y    0.031950  -0.020691   0.161768   0.224393   0.006722
   37  C 13  Z   -0.022392  -0.109900  -0.062743  -0.117375  -0.041510
   38  H 14  S    0.019511  -0.057219  -0.152340  -0.198155   0.003179
   39  H 15  S   -0.086332  -0.028526   0.030010  -0.011904  -0.037434
   40  H 16  S   -0.071497   0.149384   0.031708   0.028682   0.024056
   41  B 17  S   -0.012644  -0.021607   0.007114  -0.000819  -0.012273
   42  B 17  S    0.031528   0.050176  -0.016682   0.003866   0.033374
   43  B 17  X   -0.029296  -0.015461   0.014758   0.015916  -0.089383
   44  B 17  Y    0.029125  -0.058072  -0.037523  -0.000009  -0.383422
   45  B 17  Z   -0.051920   0.002562   0.055445   0.007999   0.269076
   46  H 18  S    0.032794  -0.009436  -0.038584   0.000550  -0.307555
   47  H 19  S    0.080253   0.028286  -0.056686  -0.007848  -0.154163
   48  H 20  S   -0.029774   0.088228   0.038178  -0.007005   0.519574

                     26         27         28         29         30
                   -0.3941    -0.3276     0.2691     0.4535     0.5307
                     A          A          A          A          A   
    1  C  1  S    0.009408   0.000900  -0.030527   0.029597  -0.038391
    2  C  1  S   -0.030442  -0.014387   0.164944  -0.115223   0.214462
    3  C  1  X    0.054243   0.291564  -0.290851   0.097434  -0.128794
    4  C  1  Y   -0.054156   0.271464  -0.347871   0.188353   0.415396
    5  C  1  Z   -0.014905   0.388478  -0.513699   0.415552  -0.140977
    6  C  2  S    0.009737  -0.001388   0.010675   0.006677   0.004930
    7  C  2  S   -0.037358   0.004952  -0.051969  -0.034073  -0.029618
    8  C  2  X   -0.014208  -0.066744  -0.062467   0.053038  -0.081135
    9  C  2  Y    0.091538  -0.052307   0.049516   0.041813   0.569059
   10  C  2  Z    0.020467  -0.113167  -0.032628   0.078524  -0.279364
   11  C  3  S    0.002102   0.000126  -0.000219  -0.008781   0.046267
   12  C  3  S   -0.006371  -0.000704   0.001173   0.047350  -0.239034
   13  C  3  X    0.037274   0.016518   0.021397   0.046585  -0.050075
   14  C  3  Y    0.006632   0.026245   0.004507   0.004242   0.338535
   15  C  3  Z    0.050521   0.050503  -0.015734   0.067083  -0.240925
   16  H  4  S    0.059533  -0.179021   0.155149  -0.134181  -0.031183
   17  H  5  S   -0.010144   0.159235  -0.109193   0.128813  -0.017512
   18  C  6  S   -0.006826   0.001969  -0.007057   0.009118   0.028371
   19  C  6  S    0.028757  -0.009006   0.033830  -0.047241  -0.153191
   20  C  6  X   -0.041296  -0.033127  -0.003204   0.039257  -0.132256
   21  C  6  Y   -0.047621  -0.013587  -0.034252   0.039751   0.625746
   22  C  6  Z   -0.062223  -0.086878   0.073578   0.057184  -0.259327
   23  H  7  S    0.016799   0.036168  -0.004945  -0.051140  -0.221182
   24  H  8  S   -0.052507  -0.063978   0.001421   0.052645  -0.059626
   25  C  9  S   -0.014560   0.005196   0.039893   0.023001  -0.037411
   26  C  9  S    0.050990  -0.024919  -0.205588  -0.093313   0.204605
   27  C  9  X    0.066505   0.043664   0.221733   0.251354   0.022674
   28  C  9  Y    0.036788   0.208029   0.420978   0.139027   0.519298
   29  C  9  Z    0.099336   0.402856   0.646716   0.191846  -0.302774
   30  H 10  S   -0.092022  -0.121470  -0.167998  -0.099041  -0.053170
   31  H 11  S    0.056788   0.123622   0.132352   0.082633  -0.085187
   32  H 12  S   -0.005241   0.022264  -0.084418  -0.153990   0.271955
   33  C 13  S   -0.012082   0.004831  -0.009565   0.022721  -0.027525
   34  C 13  S    0.047081  -0.020588   0.046711  -0.127033   0.158456
   35  C 13  X   -0.076396   0.010250  -0.058375   0.115474  -0.030014
   36  C 13  Y   -0.019385  -0.049036   0.070191  -0.024178   0.222853
   37  C 13  Z   -0.088773  -0.063173   0.032354   0.043509  -0.153141
   38  H 14  S    0.020636   0.013504   0.056459   0.059081   0.231575
   39  H 15  S   -0.117678  -0.102889  -0.196426  -0.048779  -0.079190
   40  H 16  S    0.050391   0.100742   0.117775   0.041888  -0.197723
   41  B 17  S   -0.009878  -0.026490  -0.017245  -0.090547  -0.002918
   42  B 17  S    0.026967   0.038561   0.072483   0.374822   0.011242
   43  B 17  X   -0.456578   0.022291   0.034258   0.197582  -0.037994
   44  B 17  Y    0.128848  -0.137760   0.038716   0.562966   0.080367
   45  B 17  Z   -0.005209  -0.280458   0.011101   0.780517  -0.004021
   46  H 18  S   -0.365580   0.233615   0.236938   0.016316   0.005417
   47  H 19  S    0.492682   0.100892  -0.165041  -0.000070  -0.078605
   48  H 20  S   -0.087105   0.084449  -0.091717  -0.015323   0.077403

                     31         32         33         34         35
                    0.5748     0.5918     0.6099     0.6449     0.6746
                     A          A          A          A          A   
    1  C  1  S    0.032679   0.057215   0.035259  -0.154152  -0.056774
    2  C  1  S   -0.177833  -0.341205  -0.232646   0.967619   0.363085
    3  C  1  X    0.246911   0.277713   0.190333   0.105742   0.115101
    4  C  1  Y   -0.226432   0.106107   0.128797  -0.041023  -0.100388
    5  C  1  Z   -0.141364  -0.095208  -0.282374   0.112592   0.038871
    6  C  2  S   -0.061415  -0.010887   0.040202   0.005981   0.084995
    7  C  2  S    0.338600   0.037319  -0.261029  -0.027957  -0.504145
    8  C  2  X    0.370237   0.104101   0.397763   0.043439  -0.229247
    9  C  2  Y   -0.083257  -0.199810   0.060870   0.513312  -0.259495
   10  C  2  Z   -0.190144  -0.438645   0.132939  -0.010975   0.274311
   11  C  3  S   -0.032181   0.038140   0.037458  -0.026820  -0.060251
   12  C  3  S    0.183983  -0.229142  -0.244817   0.167279   0.342051
   13  C  3  X    0.656223   0.086533   0.359385   0.333509  -0.169726
   14  C  3  Y    0.048312  -0.375059   0.046373   0.078542  -0.404661
   15  C  3  Z   -0.182023  -0.479147   0.301346  -0.234091   0.341187
   16  H  4  S    0.043408   0.473171  -0.046010  -0.232651   0.134302
   17  H  5  S    0.137146  -0.075447   0.569345   0.189263   0.058375
   18  C  6  S    0.061479   0.026592   0.052820  -0.041803   0.065021
   19  C  6  S   -0.327393  -0.163433  -0.325751   0.260308  -0.399682
   20  C  6  X    0.597386  -0.039147   0.096984   0.272887  -0.066797
   21  C  6  Y    0.103802  -0.292055  -0.120552  -0.498873   0.062266
   22  C  6  Z   -0.074401  -0.314911   0.359265  -0.152459  -0.084160
   23  H  7  S   -0.113068   0.613732   0.000735  -0.106090   0.136751
   24  H  8  S    0.063239  -0.397005   0.567271  -0.111049  -0.023939
   25  C  9  S   -0.082974   0.056717   0.084412   0.131763   0.003760
   26  C  9  S    0.465320  -0.344919  -0.524321  -0.806546  -0.040843
   27  C  9  X    0.412094  -0.065614  -0.275942   0.081242   0.100858
   28  C  9  Y   -0.012424   0.130144   0.142861  -0.075215   0.123212
   29  C  9  Z   -0.084211   0.046788  -0.115352  -0.077077  -0.125641
   30  H 10  S   -0.242450   0.455548  -0.049268   0.082614   0.224524
   31  H 11  S   -0.118701  -0.246050   0.452603  -0.417337   0.158835
   32  H 12  S    0.119333   0.380726   0.444789  -0.591033  -0.270632
   33  C 13  S    0.060713  -0.013413  -0.036242  -0.031578  -0.004760
   34  C 13  S   -0.345655   0.071926   0.201578   0.182002   0.028360
   35  C 13  X    0.530275  -0.183121  -0.415468  -0.208329   0.419699
   36  C 13  Y   -0.084785   0.210339   0.268786   0.091327   0.511842
   37  C 13  Z    0.033040  -0.037892  -0.184064  -0.237574  -0.445797
   38  H 14  S    0.247090   0.106397   0.084511   0.039270   0.717539
   39  H 15  S   -0.107738  -0.037274   0.125842   0.147023  -0.183141
   40  H 16  S   -0.126443   0.062286  -0.013872  -0.176337  -0.554381
   41  B 17  S    0.012891  -0.009027   0.020029  -0.015472   0.003635
   42  B 17  S   -0.058669   0.029355  -0.109860   0.087604  -0.010253
   43  B 17  X    0.009372   0.047301   0.023650  -0.101424  -0.023481
   44  B 17  Y   -0.085646   0.186966   0.028076  -0.084935   0.010167
   45  B 17  Z   -0.074350   0.099289   0.018436   0.013572  -0.084528
   46  H 18  S   -0.007014   0.003746   0.043057   0.107384  -0.010989
   47  H 19  S    0.045141  -0.022571   0.031931  -0.098427  -0.050881
   48  H 20  S   -0.031831   0.101032   0.062087  -0.129243   0.031390

                     36         37         38         39         40
                    0.6944     0.7117     0.7203     0.7340     0.7437
                     A          A          A          A          A   
    1  C  1  S   -0.010107   0.060407  -0.015034   0.059791   0.052209
    2  C  1  S    0.068783  -0.378072   0.097996  -0.367350  -0.349575
    3  C  1  X    0.023943   0.349968   0.160117   0.130953  -0.029596
    4  C  1  Y   -0.011527  -0.092619  -0.001584  -0.289156   0.218768
    5  C  1  Z    0.039742  -0.112846   0.015768  -0.111951  -0.192209
    6  C  2  S    0.021783  -0.086869   0.036405  -0.153609   0.000631
    7  C  2  S   -0.139780   0.545722  -0.241500   0.949423   0.013648
    8  C  2  X   -0.081931  -0.132618   0.192364   0.311125  -0.252469
    9  C  2  Y   -0.147984  -0.349982  -0.122721   0.120067  -0.012510
   10  C  2  Z   -0.351728   0.183395  -0.230649   0.290405   0.388367
   11  C  3  S    0.019991  -0.060459   0.070579   0.118720  -0.145561
   12  C  3  S   -0.123026   0.399995  -0.432019  -0.723703   0.905122
   13  C  3  X   -0.035748  -0.236179  -0.182889  -0.113119   0.115762
   14  C  3  Y   -0.036982   0.271793   0.025283   0.192084  -0.096270
   15  C  3  Z   -0.079449  -0.090419   0.051094  -0.103008  -0.051851
   16  H  4  S    0.417261  -0.200053   0.329676  -0.694653  -0.276109
   17  H  5  S   -0.135217  -0.380493   0.185704  -0.080017  -0.104335
   18  C  6  S   -0.018019  -0.114924  -0.129867  -0.023114   0.081354
   19  C  6  S    0.108231   0.726924   0.806004   0.122071  -0.495897
   20  C  6  X    0.028859   0.299705   0.085727  -0.532082   0.315998
   21  C  6  Y    0.170182   0.085616   0.134178  -0.155902  -0.164533
   22  C  6  Z    0.276605   0.093465   0.142036  -0.176035  -0.115204
   23  H  7  S    0.106090  -0.369082   0.171991   0.188993  -0.301228
   24  H  8  S   -0.038454  -0.279905   0.167238   0.226149  -0.396398
   25  C  9  S   -0.000841   0.071839   0.064572  -0.001874  -0.005325
   26  C  9  S    0.005347  -0.455598  -0.394462   0.011048   0.039088
   27  C  9  X    0.116459  -0.236364  -0.030143   0.098525  -0.180135
   28  C  9  Y    0.042781   0.023224  -0.122797  -0.043210   0.199630
   29  C  9  Z    0.090761   0.004760  -0.040527   0.226510   0.098282
   30  H 10  S   -0.322652  -0.562710  -0.518610   0.386809   0.199644
   31  H 11  S    0.210637  -0.321718  -0.243208  -0.054320   0.047023
   32  H 12  S   -0.056803   0.254597  -0.015772   0.113118   0.418282
   33  C 13  S    0.023019   0.027087  -0.168713  -0.022654  -0.132346
   34  C 13  S   -0.143327  -0.190684   1.079029   0.150652   0.854257
   35  C 13  X   -0.116415  -0.239297   0.348601   0.292036   0.037347
   36  C 13  Y   -0.547459   0.455232   0.039945  -0.072928  -0.353416
   37  C 13  Z   -0.774105  -0.223874   0.118398  -0.376041  -0.133275
   38  H 14  S   -0.169464   0.452869  -0.393062   0.061401  -0.597258
   39  H 15  S    0.880013   0.146153  -0.690262   0.050432  -0.140339
   40  H 16  S   -0.553120   0.082456  -0.530267  -0.489178  -0.505302
   41  B 17  S    0.001434  -0.014984  -0.023116  -0.008362  -0.033546
   42  B 17  S   -0.006973   0.064513   0.119785   0.043583   0.171543
   43  B 17  X    0.049232   0.109078   0.129343   0.055333  -0.046331
   44  B 17  Y   -0.061920   0.080909   0.007045  -0.017792   0.150918
   45  B 17  Z    0.092838   0.002867  -0.026252   0.020661  -0.039473
   46  H 18  S    0.034919  -0.084465  -0.109702  -0.014706  -0.062200
   47  H 19  S    0.088110   0.058659   0.006535   0.037474  -0.167230
   48  H 20  S   -0.083414   0.002953  -0.026969  -0.063126   0.062049

                     41         42         43         44         45
                    0.7566     0.7861     0.8128     0.8266     0.8668
                     A          A          A          A          A   
    1  C  1  S    0.022267  -0.005888   0.006946  -0.004647  -0.012623
    2  C  1  S   -0.148519   0.019441  -0.082800   0.050136   0.088679
    3  C  1  X   -0.045343  -0.223896  -0.365206   0.328238   0.034248
    4  C  1  Y   -0.034619   0.166783   0.201931  -0.173615  -0.068290
    5  C  1  Z   -0.175517  -0.041276  -0.024686   0.065091  -0.005240
    6  C  2  S    0.108260  -0.021019   0.049243  -0.028285   0.004582
    7  C  2  S   -0.691611   0.146262  -0.315319   0.178279  -0.032970
    8  C  2  X    0.518725  -0.426756  -0.036476  -0.263352   0.166920
    9  C  2  Y   -0.116099   0.229399   0.054587  -0.437263   0.042088
   10  C  2  Z    0.339864   0.184262  -0.308946  -0.294455   0.028336
   11  C  3  S   -0.032913   0.074360  -0.029912   0.016075   0.008593
   12  C  3  S    0.204106  -0.491946   0.198963  -0.107407  -0.047673
   13  C  3  X   -0.385872   0.304661   0.120955   0.223419  -0.104055
   14  C  3  Y   -0.040767  -0.564113   0.477897   0.406041   0.041884
   15  C  3  Z    0.201843   0.368112   0.134487   0.608282  -0.117333
   16  H  4  S    0.081513  -0.302675   0.326771   0.313686  -0.024856
   17  H  5  S    0.780286  -0.331857   0.027662  -0.419261   0.172809
   18  C  6  S   -0.061657  -0.039199  -0.010577   0.014741  -0.028470
   19  C  6  S    0.403930   0.263190   0.060069  -0.093187   0.186893
   20  C  6  X    0.044676   0.430672  -0.130810  -0.083942  -0.048802
   21  C  6  Y    0.152400   0.133720  -0.447036  -0.082689  -0.001558
   22  C  6  Z   -0.637515  -0.288097  -0.116363  -0.487318   0.187462
   23  H  7  S   -0.089853   0.608571  -0.502459  -0.399257   0.009640
   24  H  8  S   -0.091569   0.534243   0.096687   0.629324  -0.095431
   25  C  9  S   -0.032261  -0.019811  -0.003714   0.017551   0.001138
   26  C  9  S    0.202855   0.140066   0.048903  -0.131277  -0.015075
   27  C  9  X    0.121773  -0.091784  -0.092811   0.067981   0.149990
   28  C  9  Y    0.153966   0.078311  -0.296473   0.254579  -0.241070
   29  C  9  Z    0.115163   0.109101   0.379651  -0.144299   0.047896
   30  H 10  S    0.032158  -0.282746   0.298488   0.329092  -0.129442
   31  H 11  S   -0.688794  -0.448549  -0.079124  -0.348320   0.066099
   32  H 12  S    0.137370   0.076650   0.097638  -0.099581  -0.070140
   33  C 13  S    0.043823   0.016012   0.021098  -0.032918   0.026877
   34  C 13  S   -0.279389  -0.104759  -0.133787   0.212234  -0.182121
   35  C 13  X   -0.115036  -0.100766   0.211450  -0.143875   0.062647
   36  C 13  Y   -0.230833  -0.062117   0.091374  -0.111227  -0.091233
   37  C 13  Z   -0.086353  -0.060365  -0.152892   0.025957  -0.049367
   38  H 14  S   -0.066228  -0.018195   0.187591  -0.196885   0.030556
   39  H 15  S    0.311582   0.150724  -0.004383   0.006735   0.110684
   40  H 16  S    0.098583   0.064925  -0.110101  -0.025275   0.006625
   41  B 17  S   -0.001172  -0.004906   0.016687   0.038354   0.035869
   42  B 17  S    0.008901   0.030358  -0.095589  -0.228196  -0.202443
   43  B 17  X    0.013196   0.299158   0.712624  -0.346627  -0.459142
   44  B 17  Y   -0.056932   0.197246   0.200167   0.129932   0.918881
   45  B 17  Z    0.025554  -0.205332  -0.240352   0.116923  -0.544539
   46  H 18  S    0.041316  -0.334053  -0.572199   0.383511  -0.004812
   47  H 19  S    0.010822   0.062574   0.418532  -0.167189  -0.691086
   48  H 20  S   -0.068049   0.228553   0.305446   0.165876   0.961561

                     46         47         48
                    0.8683     0.8800     0.9826
                     A          A          A   
    1  C  1  S    0.034111   0.033050  -0.095263
    2  C  1  S   -0.247171  -0.200213   0.707888
    3  C  1  X   -0.189325  -0.003008   0.735080
    4  C  1  Y    0.668154   0.101960   0.364509
    5  C  1  Z   -0.268148   0.106476  -0.637749
    6  C  2  S    0.040736   0.004343   0.017023
    7  C  2  S   -0.262263  -0.036404  -0.105859
    8  C  2  X   -0.257243   0.007898  -0.282176
    9  C  2  Y    0.200351  -0.078518   0.013563
   10  C  2  Z   -0.036036  -0.144129   0.170418
   11  C  3  S    0.009162   0.015388  -0.004926
   12  C  3  S   -0.061254  -0.101333   0.033521
   13  C  3  X    0.023247   0.066875  -0.164250
   14  C  3  Y   -0.006454   0.105748  -0.022819
   15  C  3  Z    0.111945   0.120317   0.092965
   16  H  4  S    0.041512   0.131190  -0.068714
   17  H  5  S   -0.070164   0.005946  -0.112830
   18  C  6  S   -0.068444   0.002345  -0.006807
   19  C  6  S    0.442140  -0.018249   0.038660
   20  C  6  X    0.036776  -0.055320  -0.253215
   21  C  6  Y   -0.282280  -0.067698  -0.039752
   22  C  6  Z    0.055556  -0.030045   0.104951
   23  H  7  S    0.012603  -0.065813  -0.009320
   24  H  8  S    0.128498   0.185266  -0.013284
   25  C  9  S   -0.012098  -0.003382   0.090159
   26  C  9  S    0.075920   0.031805  -0.693167
   27  C  9  X    0.041606   0.005791   1.005708
   28  C  9  Y   -0.630120  -0.033648  -0.110088
   29  C  9  Z    0.304092   0.063342  -0.300036
   30  H 10  S   -0.081997   0.066230   0.069652
   31  H 11  S   -0.184666   0.023445   0.118005
   32  H 12  S    0.546315   0.086357   0.348739
   33  C 13  S    0.045523   0.024247   0.038021
   34  C 13  S   -0.292611  -0.163952  -0.253764
   35  C 13  X    0.365427  -0.021637   0.034172
   36  C 13  Y    0.079499   0.029238  -0.261049
   37  C 13  Z   -0.095268  -0.040181   0.227020
   38  H 14  S    0.268341   0.104802  -0.145979
   39  H 15  S   -0.019681   0.073993   0.051696
   40  H 16  S   -0.123765   0.080078   0.183413
   41  B 17  S    0.028955  -0.259644  -0.015419
   42  B 17  S   -0.175647   1.521876   0.093299
   43  B 17  X   -0.582636  -0.192286   0.310863
   44  B 17  Y   -0.176495  -0.061849  -0.008768
   45  B 17  Z    0.324924  -0.292436  -0.108047
   46  H 18  S    0.646538  -0.685845  -0.276391
   47  H 19  S   -0.183111  -0.904135   0.134949
   48  H 20  S   -0.192073  -0.658056  -0.011483
 ...... END OF RHF CALCULATION ......
 STEP CPU TIME =     0.14 TOTAL CPU TIME =          0.5 (      0.0 MIN)
 TOTAL WALL CLOCK TIME=          0.6 SECONDS, CPU UTILIZATION IS    75.00%

     ----------------------------------------------------------------
     PROPERTY VALUES FOR THE RHF   SELF-CONSISTENT FIELD WAVEFUNCTION
     ----------------------------------------------------------------

          -----------------
          ENERGY COMPONENTS
          -----------------

         WAVEFUNCTION NORMALIZATION =       1.0000000000

                ONE ELECTRON ENERGY =    -958.5471999795
                TWO ELECTRON ENERGY =     393.0607828623
           NUCLEAR REPULSION ENERGY =     309.1456631933
                                      ------------------
                       TOTAL ENERGY =    -256.3407539238

 ELECTRON-ELECTRON POTENTIAL ENERGY =     393.0607828623
  NUCLEUS-ELECTRON POTENTIAL ENERGY =   -1213.0273574505
   NUCLEUS-NUCLEUS POTENTIAL ENERGY =     309.1456631933
                                      ------------------
             TOTAL POTENTIAL ENERGY =    -510.8209113949
               TOTAL KINETIC ENERGY =     254.4801574710
                 VIRIAL RATIO (V/T) =       2.0073113616

          ---------------------------------------
          MULLIKEN AND LOWDIN POPULATION ANALYSES
          ---------------------------------------

     ATOMIC MULLIKEN POPULATION IN EACH MOLECULAR ORBITAL

                      1          2          3          4          5

                  2.000000   2.000000   2.000000   2.000000   2.000000

    1            -0.001174   0.000012   0.002754   1.998496   0.001045
    2             0.000000   0.000000   0.000064   0.001109   2.000744
    3             0.000001   0.000000  -0.000452   0.000018   0.000078
    4            -0.000000  -0.000000  -0.000000   0.000001  -0.000981
    5            -0.000000  -0.000000   0.000000   0.000001  -0.000976
    6            -0.000719   0.000078   2.000244   0.002748   0.000089
    7            -0.000000   0.000000   0.000002   0.000000   0.000002
    8             0.000000  -0.000000   0.000002   0.000000   0.000002
    9             2.002829  -0.000786  -0.000731  -0.001221  -0.000001
   10            -0.000001   0.000000  -0.000982  -0.000002  -0.000000
   11             0.000000   0.000000  -0.000976  -0.000002  -0.000000
   12             0.000001  -0.000000  -0.000001  -0.000945  -0.000001
   13            -0.000723   2.003653   0.000077   0.000015   0.000000
   14             0.000001  -0.000986  -0.000000  -0.000000  -0.000000
   15            -0.000001  -0.000984  -0.000000  -0.000000  -0.000000
   16            -0.000000  -0.000985  -0.000000  -0.000000  -0.000000
   17            -0.000206  -0.000001  -0.000000  -0.000225  -0.000001
   18            -0.000008  -0.000000  -0.000000   0.000000   0.000000
   19            -0.000000  -0.000000   0.000000   0.000003  -0.000000
   20             0.000001   0.000000   0.000000   0.000003  -0.000000

                      6          7          8          9         10

                  2.000000   2.000000   2.000000   2.000000   2.000000

    1             0.000023  -0.000213   0.444444   0.080059   0.407986
    2             0.000069  -0.000000   0.232397   0.285298   0.226827
    3             2.002341  -0.000000   0.201911   0.362200   0.196269
    4            -0.000001  -0.000000   0.017245   0.036908   0.030995
    5            -0.000000  -0.000000   0.014178   0.034834   0.031225
    6            -0.000452  -0.000001   0.290649   0.072868   0.534823
    7            -0.000988  -0.000000   0.012750   0.048897   0.026234
    8            -0.000993  -0.000000   0.014930   0.046041   0.022022
    9             0.000000  -0.000184   0.547613   0.303575   0.166405
   10             0.000000  -0.000000   0.023325   0.002206   0.098194
   11             0.000001  -0.000000   0.019320   0.001996   0.097931
   12            -0.000000  -0.000001   0.026405   0.002592   0.072657
   13             0.000000  -0.000001   0.100763   0.505815   0.047867
   14            -0.000000  -0.000001   0.007642   0.069338   0.003058
   15            -0.000000  -0.000000   0.007894   0.068856   0.009610
   16            -0.000000   0.000000   0.006853   0.064334   0.011607
   17            -0.000001   2.003899   0.023933   0.009364   0.013033
   18             0.000000  -0.001181   0.004609   0.003690   0.000005
   19             0.000000  -0.001156   0.001915  -0.000006   0.001677
   20            -0.000000  -0.001162   0.001222   0.001135   0.001575

                     11         12         13         14         15

                  2.000000   2.000000   2.000000   2.000000   2.000000

    1             0.122118   0.145534   0.568165   0.160356   0.223160
    2             0.268916   0.322322   0.092788   0.128139   0.299899
    3             0.170479   0.436640   0.088625   0.084756   0.246943
    4             0.054586   0.109139   0.003499   0.006266   0.101291
    5             0.057128   0.079636   0.010927   0.070255   0.028565
    6             0.138533   0.260689   0.264224   0.184272   0.121330
    7             0.031825   0.135295   0.010007   0.017098   0.127418
    8             0.024717   0.154006   0.000067   0.029620   0.000525
    9             0.216365   0.148348   0.248546   0.206673   0.304129
   10             0.021074   0.083650   0.074938   0.010911   0.033630
   11             0.022783   0.054539   0.053381   0.108462   0.001063
   12             0.007944   0.007502   0.381961   0.004990   0.035495
   13             0.527017   0.016426   0.092513   0.068436   0.316260
   14             0.104619   0.002476   0.029548   0.002140   0.026971
   15             0.110954   0.002894   0.019159   0.025594   0.047458
   16             0.107140   0.003600   0.003969   0.018259   0.055409
   17             0.011115   0.025234   0.030747   0.431083   0.017257
   18             0.001538   0.003251   0.025287   0.194472   0.004208
   19             0.000540   0.002959   0.001497   0.135468   0.003950
   20             0.000609   0.005860   0.000150   0.112749   0.005039

                     16         17         18         19         20

                  2.000000   2.000000   2.000000   2.000000   2.000000

    1             0.036924   0.120312   0.019306   0.018130   0.294358
    2             0.188240   0.055827   0.181868   0.319225   0.085370
    3             0.350292   0.035421   0.012338   0.015835   0.240510
    4             0.056834   0.001802   0.080399   0.181835   0.000795
    5             0.076227   0.038546   0.074044   0.104113   0.045487
    6             0.176199   0.096098   0.208942   0.285948   0.198703
    7             0.045055   0.031655   0.000194   0.000014   0.113926
    8             0.191425   0.000260   0.001138   0.001008   0.001768
    9             0.080493   0.146718   0.038970   0.002463   0.302434
   10             0.059802   0.000628   0.125836   0.155441   0.006170
   11             0.043370   0.051875   0.063073   0.101736   0.088988
   12             0.024131   0.051521   0.002880   0.000151   0.104971
   13             0.123462   0.723606   0.482195   0.378792   0.271957
   14             0.055718   0.373941   0.018529   0.021762   0.042979
   15             0.008362   0.009801   0.276475   0.231703   0.033296
   16             0.008075   0.212687   0.136008   0.091522   0.103228
   17             0.233124   0.021412   0.131907   0.042072   0.030135
   18             0.085871   0.012944   0.001436   0.026930   0.008164
   19             0.053645   0.011355   0.099826   0.011879   0.003701
   20             0.102750   0.003593   0.044636   0.009440   0.023060

                     21         22         23         24         25

                  2.000000   2.000000   2.000000   2.000000   2.000000

    1             0.411090   0.158313   0.045791   0.037705   0.026222
    2             0.429781   0.200772   0.539497   0.154853   0.018894
    3             0.176916   0.434518   0.507012   0.508332   0.013914
    4             0.004535   0.142187   0.040772   0.001118   0.001275
    5             0.130394   0.021526   0.031587   0.028917   0.000537
    6             0.291912   0.120889   0.209601   0.579310   0.027803
    7             0.010954   0.245886   0.049461   0.024148   0.005929
    8             0.075246   0.264426   0.080889   0.007025   0.000049
    9             0.099173   0.095934   0.192462   0.281837   0.035011
   10             0.060135   0.112637   0.001708   0.000384   0.020001
   11             0.020785   0.021631   0.120832   0.012131   0.004868
   12             0.106748  -0.000000   0.002189   0.056407   0.018936
   13             0.104551   0.071069   0.081556   0.211737   0.004316
   14             0.000618   0.007224   0.054433   0.092630   0.000053
   15             0.017862   0.001673   0.001913   0.000477   0.002949
   16             0.012459   0.052847   0.002192   0.001467   0.001034
   17             0.021157   0.021817   0.019618   0.001162   0.796773
   18             0.003360   0.000180   0.004112  -0.000000   0.238679
   19             0.019637   0.002616   0.010122   0.000187   0.062189
   20             0.002686   0.023854   0.004255   0.000173   0.720568

                     26         27

                  2.000000   2.000000

    1             0.014226   0.726790
    2             0.022276   0.042347
    3             0.009486   0.007136
    4             0.007626   0.059483
    5             0.000044   0.047463
    6             0.018749   0.018670
    7             0.000564   0.002231
    8             0.005142   0.007321
    9             0.044162   0.465994
   10             0.017601   0.027095
   11             0.005977   0.029201
   12             0.000048   0.000771
   13             0.033718   0.013987
   14             0.000578   0.000377
   15             0.029124   0.019546
   16             0.004451   0.019707
   17             0.785874   0.340780
   18             0.336427   0.128029
   19             0.644171   0.025294
   20             0.019757   0.017777

               ----- POPULATIONS IN EACH AO -----
                             MULLIKEN      LOWDIN
              1  C  1  S      1.99271     1.98627
              2  C  1  S      1.17441     1.04676
              3  C  1  X      0.97894     1.02754
              4  C  1  Y      0.97267     0.98945
              5  C  1  Z      0.94320     0.95124
              6  C  2  S      1.99209     1.98514
              7  C  2  S      1.18158     1.03026
              8  C  2  X      0.99713     1.02380
              9  C  2  Y      0.93711     0.97742
             10  C  2  Z      0.98961     1.01768
             11  C  3  S      1.99210     1.98511
             12  C  3  S      1.18184     1.03158
             13  C  3  X      0.93947     0.97869
             14  C  3  Y      0.99281     1.01997
             15  C  3  Z      0.99530     1.02347
             16  H  4  S      0.93761     0.97005
             17  H  5  S      0.92466     0.96053
             18  C  6  S      1.99212     1.98519
             19  C  6  S      1.18445     1.03445
             20  C  6  X      0.98509     1.01558
             21  C  6  Y      0.92854     0.97115
             22  C  6  Z      1.01200     1.03484
             23  H  7  S      0.93856     0.97086
             24  H  8  S      0.92664     0.96196
             25  C  9  S      1.99288     1.98617
             26  C  9  S      1.18440     1.06693
             27  C  9  X      0.93438     0.97033
             28  C  9  Y      0.91629     0.93704
             29  C  9  Z      0.89926     0.91426
             30  H 10  S      0.93438     0.96695
             31  H 11  S      0.92297     0.95891
             32  H 12  S      0.90735     0.94585
             33  C 13  S      1.99201     1.98539
             34  C 13  S      1.18420     1.01253
             35  C 13  X      0.96139     0.99907
             36  C 13  Y      1.00872     1.03557
             37  C 13  Z      1.03274     1.05407
             38  H 14  S      0.91365     0.94949
             39  H 15  S      0.92462     0.95705
             40  H 16  S      0.91587     0.95146
             41  B 17  S      1.98913     1.97863
             42  B 17  S      0.91230     0.86679
             43  B 17  X      0.82515     0.88023
             44  B 17  Y      0.70402     0.75489
             45  B 17  Z      0.58046     0.63185
[...]
 18   H            X -0.00379826  0.02764674  0.51805909  0.62360967  0.14648724
                   Y -0.00235186  0.01651007 -0.11639904 -0.14580450 -0.02993408
                   Z -0.00686711  0.01361576 -0.27929016 -0.33798695 -0.08146932
 19   H            X -0.00071408 -0.00835071 -0.33532879  0.13143708  0.47838347
                   Y -0.00547818  0.02843113  0.31686854 -0.12888566 -0.45953311
                   Z -0.00159086  0.03347945 -0.26223940  0.10991256  0.37853996
 20   H            X -0.00543855 -0.00807956 -0.22666785  0.21116105 -0.19735264
                   Y -0.00144781  0.02374692 -0.45499734  0.44250973 -0.40202428
                   Z -0.00689200  0.04413022  0.28081156 -0.26691044  0.24859047

 TRANS. SAYVETZ    X  0.00000001 -0.00000003  0.00000001  0.00000009 -0.00000003
                   Y -0.00000015  0.00000003  0.00000009  0.00000018 -0.00000007
                   Z -0.00000013 -0.00000038  0.00000030  0.00000007  0.00000006
               TOTAL  0.00000020  0.00000038  0.00000032  0.00000021  0.00000010

   ROT. SAYVETZ    X -0.00043360 -0.00026468  0.00031860  0.00020305  0.00003073
                   Y -0.00020446  0.00009087  0.00071164 -0.00002299 -0.00014780
                   Z -0.00021742  0.00020195  0.00098392 -0.00004777 -0.00000711
               TOTAL  0.00052638  0.00034510  0.00125540  0.00020985  0.00015113

                           51          52          53          54          55
       FREQUENCY:      3569.79     3608.89     3610.21     3632.31     3724.31  
        SYMMETRY:         A           A           A           A           A   
    REDUCED MASS:      1.03944     1.06720     1.06675     1.06885     1.11001
    IR INTENSITY:      0.00363     0.02481     0.01924     0.02231     0.00315

  1   C            X -0.00038601 -0.00204531  0.00021423 -0.00025034 -0.00020075
                   Y -0.00001771 -0.00047078  0.00001425 -0.00040327 -0.00042166
                   Z  0.00013566  0.00159935 -0.00031431  0.00056137  0.00016583
  2   C            X -0.00019130  0.05304930 -0.00712341  0.00731376  0.00911047
                   Y  0.00005255 -0.01760956  0.00280845 -0.00085652  0.00655080
                   Z  0.00016321 -0.04198627  0.00537368 -0.00799776  0.01099781
  3   C            X -0.00001542 -0.00450650  0.00109849  0.02313918  0.00233700
                   Y  0.00009870  0.00631459 -0.00968021 -0.05985957  0.00453721
                   Z -0.00005357 -0.00068682  0.00440842  0.02865181  0.00615594
  4   H            X  0.00011012 -0.07689588  0.01029831 -0.00987657  0.01087509
                   Y -0.00105371  0.34900481 -0.04593328  0.05109820 -0.04475616
                   Z -0.00223134  0.67180877 -0.08872241  0.09382443 -0.08682033
  5   H            X  0.00222911 -0.51001735  0.06566437 -0.06043027 -0.11858133
                   Y  0.00057669 -0.14509635  0.01830414 -0.01777257 -0.03295673
                   Z  0.00095614 -0.19723023  0.02557940 -0.02463429 -0.04350717
  6   C            X -0.00043222  0.00882782  0.05764485 -0.01080920 -0.02004803
                   Y -0.00005249  0.00398344  0.02952502 -0.00306145 -0.03701324
                   Z  0.00004178 -0.00355170 -0.02500417  0.00296504 -0.07929835
  7   H            X -0.00015669 -0.00506572  0.00738529  0.04797110 -0.00558139
                   Y -0.00111308 -0.08052438  0.11415809  0.65687678 -0.04918799
                   Z -0.00042513 -0.02914054  0.04129398  0.24597668 -0.01751138
  8   H            X  0.00053706  0.02916609 -0.04807355 -0.29974724 -0.02237055
                   Y  0.00002064 -0.00176507  0.00181335  0.00262211 -0.00035089
                   Z  0.00101446  0.05929895 -0.08544201 -0.55764081 -0.04663989
  9   C            X -0.00214695 -0.00027451 -0.00012246 -0.00046605  0.00002146
                   Y  0.00153292  0.00015110 -0.00145022  0.00050925 -0.00012360
                   Z -0.00040230  0.00012114  0.00111950 -0.00018213  0.00045707
 10   H            X  0.00237620 -0.07665292 -0.50955796  0.07555996  0.41304186
                   Y  0.00214933 -0.06355785 -0.42204055  0.06522537  0.33995939
                   Z  0.00143877 -0.04611864 -0.30546550  0.04681071  0.24080235
 11   H            X  0.00039374 -0.02088325 -0.13645360  0.01743930 -0.17194557
                   Y -0.00050954  0.01383638  0.08911272 -0.01271243  0.10002589
                   Z -0.00210777  0.08779064  0.57865689 -0.07955844  0.69013550
 12   H            X  0.00100061  0.00672982 -0.00273307  0.00271723  0.00026670
                   Y  0.00248205  0.01858610 -0.00599145  0.01082291  0.00250375
                   Z -0.00290406 -0.01848365  0.00694314 -0.01056809 -0.00431529
 13   C            X  0.04638027  0.00014490  0.00005226  0.00016360  0.00029102
                   Y -0.01862701 -0.00020165 -0.00028147  0.00004308  0.00136741
                   Z  0.01616171  0.00007458 -0.00010861  0.00003061  0.00117137
 14   H            X  0.11608427  0.00063986  0.00044274  0.00002164 -0.00168521
                   Y  0.46072070  0.00217109  0.00366832  0.00015068 -0.00728108
                   Z -0.20463230 -0.00099282 -0.00172182 -0.00007220  0.00338020
 15   H            X -0.35460832 -0.00137857 -0.00042729 -0.00075654 -0.00724675
                   Y -0.33415759 -0.00105727 -0.00038291 -0.00076772 -0.00712727
                   Z -0.42045092 -0.00142321 -0.00035330 -0.00093153 -0.00879305
 16   H            X -0.28030129 -0.00103392 -0.00150356 -0.00026448  0.00503859
                   Y  0.07409683  0.00022757  0.00055120 -0.00000593 -0.00113845
                   Z  0.43973786  0.00147823  0.00232984  0.00057143 -0.00798883
 17   B            X  0.00017766  0.00000501  0.00012286  0.00013684  0.00012588
                   Y -0.00006803  0.00012487 -0.00028364  0.00001669 -0.00006561
                   Z -0.00020795  0.00014705 -0.00008502  0.00013344 -0.00012651
 18   H            X -0.00339824 -0.00085262 -0.00163635 -0.00001260 -0.00118425
                   Y  0.00019973  0.00006734 -0.00024056 -0.00002460 -0.00015113
                   Z  0.00049480  0.00034517  0.00099144 -0.00008321  0.00082020
 19   H            X -0.00035014 -0.00094436 -0.00072500 -0.00146081 -0.00069392
                   Y  0.00052602  0.00067204  0.00105880  0.00197144  0.00049033
                   Z -0.00028425  0.00005374 -0.00047748 -0.00118563 -0.00017678
 20   H            X -0.00033153 -0.00007133 -0.00036708  0.00003205 -0.00023338
                   Y -0.00062385 -0.00066365 -0.00025876 -0.00005364 -0.00041481
                   Z  0.00060284  0.00002382  0.00026937 -0.00007530  0.00057742

 TRANS. SAYVETZ    X  0.00000025  0.00000044  0.00000010  0.00000025  0.00000002
                   Y -0.00000033  0.00000026 -0.00000006 -0.00000044  0.00000007
                   Z  0.00000044 -0.00000031  0.00000016 -0.00000005 -0.00000007
               TOTAL  0.00000060  0.00000060  0.00000020  0.00000051  0.00000009

   ROT. SAYVETZ    X -0.00026200 -0.00010823 -0.00041879 -0.00065922 -0.00000131
                   Y  0.00003251  0.00046819  0.00050803 -0.00016745  0.00006039
                   Z  0.00011604 -0.00030939 -0.00011308  0.00034399  0.00000819
               TOTAL  0.00028838  0.00057152  0.00066804  0.00076219  0.00006095

                           56          57          58          59          60
       FREQUENCY:      3726.59     3739.96     3746.82     3749.09     3768.51  
        SYMMETRY:         A           A           A           A           A   
    REDUCED MASS:      1.11029     1.10703     1.10020     1.11089     1.11030
    IR INTENSITY:      0.00019     0.00636     0.41957     0.01010     0.01293

  1   C            X  0.00159227 -0.00139540  0.01995055  0.00142097  0.00033826
                   Y  0.00269995 -0.00422488  0.05848270  0.00400306  0.00002376
                   Z -0.00283006  0.00427884 -0.06039869 -0.00412574 -0.00001962
  2   C            X -0.05329933 -0.00084720  0.00600867 -0.00437968 -0.00002498
                   Y -0.03677682 -0.00020329 -0.00087899 -0.00380477  0.00002492
                   Z -0.06178785 -0.00070414  0.00303821 -0.00613369 -0.00003754
  3   C            X  0.00415016  0.00037141  0.00232604 -0.03150619  0.00004636
                   Y  0.00700581  0.00069646  0.00177590 -0.04835424  0.00003773
                   Z  0.00865797  0.00081927  0.00498379 -0.07024691  0.00002618
  4   H            X -0.06026530 -0.00017877 -0.00023455 -0.00898985  0.00002376
                   Y  0.24982773  0.00157227 -0.00229433  0.02792659 -0.00001204
                   Z  0.48175145  0.00369408 -0.00880837  0.05852285  0.00005529
  5   H            X  0.67719014  0.00818297 -0.05382802  0.06328375  0.00060180
                   Y  0.18616421  0.00232595 -0.01352654  0.01836045  0.00010288
                   Z  0.25028483  0.00309762 -0.01997746  0.02246519  0.00017944
  6   C            X -0.00302909 -0.00059194 -0.00070550 -0.00217585 -0.00034635
                   Y -0.00596188 -0.00073365  0.00008975 -0.00356924  0.00006645
                   Z -0.01341508 -0.00157619  0.00102071 -0.00702484 -0.00021781
  7   H            X -0.00426511 -0.00057436 -0.00189738  0.03960252 -0.00004465
                   Y -0.07504514 -0.00739677 -0.02971506  0.58129428 -0.00003271
                   Z -0.02896112 -0.00272652 -0.01055650  0.21205363 -0.00002837
  8   H            X -0.03710850 -0.00371708 -0.02385777  0.33040616 -0.00022218
                   Y -0.00130523  0.00003852  0.00086969 -0.01131306 -0.00000476
                   Z -0.06595318 -0.00693900 -0.04478941  0.61316908 -0.00048570
  9   C            X -0.00023205 -0.00043535 -0.00598323 -0.00051959 -0.00020440
                   Y -0.00030503  0.00042600 -0.00068374 -0.00004574  0.00027302
                   Z  0.00012982 -0.00017084  0.00299003  0.00019335 -0.00027461
 10   H            X  0.06668937  0.00963516  0.00039645  0.04753788  0.00121258
                   Y  0.05500753  0.00806052 -0.00018030  0.03596546  0.00111749
                   Z  0.03887759  0.00557976  0.00005287  0.02551895  0.00081143
 11   H            X -0.02853777 -0.00319082  0.00303307 -0.01701509 -0.00007577
                   Y  0.01645484  0.00169085 -0.00191139  0.00994768  0.00024901
                   Z  0.11640025  0.01301666 -0.00949546  0.06402773  0.00023937
 12   H            X -0.00891832  0.01373371 -0.18253804 -0.01249798 -0.00010369
                   Y -0.03293581  0.04832406 -0.65337907 -0.04408864 -0.00099062
                   Z  0.03351203 -0.04787469  0.65500501  0.04380078  0.00060916
 13   C            X  0.00018716 -0.01449237 -0.00044609 -0.00017512 -0.04445618
                   Y  0.00072217 -0.06312889 -0.00481226 -0.00088977 -0.05106715
                   Z  0.00056169 -0.06255130 -0.00458816 -0.00085899  0.06174168
 14   H            X -0.00109637  0.07844056  0.00582642  0.00111763  0.16279225
                   Y -0.00425100  0.31172028  0.02373170  0.00441415  0.64279484
                   Z  0.00198464 -0.14442898 -0.01096565 -0.00204650 -0.28685685
 15   H            X -0.00442133  0.38750009  0.02672052  0.00530424  0.04476733
                   Y -0.00392323  0.36551873  0.02557073  0.00493837  0.04280401
                   Z -0.00509424  0.45704958  0.03149964  0.00618719  0.05927490
 16   H            X  0.00320498 -0.28303424 -0.02130271 -0.00375548  0.32122553
                   Y -0.00076820  0.06779995  0.00523445  0.00090963 -0.08384171
                   Z -0.00454989  0.43381909  0.03419953  0.00591970 -0.50269940
 17   B            X -0.00024503  0.00041463 -0.00083186 -0.00025715 -0.00009120
                   Y  0.00015999 -0.00012334  0.00066405  0.00023152  0.00008731
                   Z -0.00020207 -0.00020519  0.00068728 -0.00017937  0.00010895
 18   H            X  0.00116543 -0.00319073  0.00484350  0.00078053  0.00226114
                   Y -0.00023497  0.00069618  0.00074504 -0.00011500 -0.00023142
                   Z  0.00023545  0.00118343  0.00154204  0.00012124 -0.00107748
 19   H            X  0.00202116 -0.00076006  0.00137404  0.00177117  0.00004801
                   Y -0.00170088  0.00083409 -0.00129491 -0.00280614  0.00004931
                   Z  0.00073068 -0.00017039  0.00142326  0.00142884 -0.00008547
 20   H            X -0.00012855 -0.00030595 -0.00128310 -0.00018950  0.00011758
                   Y -0.00068693 -0.00007651 -0.00375572 -0.00094074  0.00001865
                   Z  0.00079147  0.00021196  0.00387809  0.00093524 -0.00004214

 TRANS. SAYVETZ    X -0.00000008 -0.00000004 -0.00000002 -0.00000004 -0.00000005
                   Y -0.00000002 -0.00000006 -0.00000024  0.00000002 -0.00000008
                   Z -0.00000009  0.00000004 -0.00000022 -0.00000002  0.00000002
               TOTAL  0.00000012  0.00000008  0.00000032  0.00000005  0.00000009

   ROT. SAYVETZ    X -0.00009942  0.00002642  0.00001767  0.00001990 -0.00015332
                   Y -0.00002869 -0.00001458 -0.00006294  0.00006748  0.00008979
                   Z  0.00005302 -0.00006223 -0.00006019 -0.00003644  0.00002463
               TOTAL  0.00011627  0.00006916  0.00008886  0.00007923  0.00017938

 REFERENCE ON SAYVETZ CONDITIONS - A. SAYVETZ, J.CHEM.PHYS., 7, 383-389(1939).

 NOTE - THE MODES J,K ARE ORTHONORMALIZED ACCORDING TO
 SUM ON I   M(I) * (X(I,J)*X(I,K) + Y(I,J)*Y(I,K) + Z(I,J)*Z(I,K)) = DELTA(J,K)

  MODE FREQ(CM**-1)  SYMMETRY  RED. MASS  IR INTENS.
     1      73.932    A        1.143915    0.023145
     2       0.015    A        4.806720    0.000000
     3       0.008    A        4.805098    0.000000
     4       0.003    A        4.805577    0.000000
     5       8.543    A        3.063363    0.059866
     6      10.847    A        2.922404    0.043944
     7      13.423    A        2.800519    0.057372
     8     150.238    A        1.637285    0.028069
     9     208.223    A        1.051341    0.011334
    10     240.845    A        2.442778    0.104095
    11     289.657    A        2.999079    0.611270
    12     312.101    A        3.581914    0.375685
    13     343.515    A        2.780147    0.559820
    14     366.177    A        2.625196    0.149228
    15     494.112    A        2.451287    0.442721
    16     666.188    A        3.954320    0.021678
    17     809.316    A        2.633914    0.025665
    18     900.875    A        1.401147    0.034331
    19     956.612    A        1.161509    0.409821
    20    1003.919    A        2.897254    0.112600
    21    1028.030    A        1.242441    0.163544
    22    1061.136    A        1.283592    0.023241
    23    1081.677    A        2.111091    0.066173
    24    1101.534    A        1.307894    0.127201
    25    1123.028    A        1.658783    0.008284
    26    1208.378    A        1.340889    0.295167
    27    1241.736    A        1.345388    0.209166
    28    1259.463    A        1.662317    0.013453
    29    1294.087    A        1.637454    0.098179
    30    1377.791    A        1.209135    0.156098
    31    1386.865    A        1.994524    0.107121
    32    1428.646    A        1.150817    6.069006
    33    1464.237    A        1.198121    0.319445
    34    1498.227    A        1.120735    0.007524
    35    1512.497    A        1.454141    0.031221
    36    1529.222    A        1.092205    0.299393
    37    1550.992    A        1.074754    0.211609
    38    1601.510    A        1.982791    0.141696
    39    1626.398    A        1.716588    0.040158
    40    1645.121    A        1.931401    0.005564
    41    1717.747    A        1.317707    0.028357
    42    1800.297    A        1.070745    0.060055
    43    1803.194    A        1.083333    0.049579
    44    1807.806    A        1.062459    0.102617
    45    1812.646    A        1.106242    0.001139
    46    1833.826    A        1.119952    0.012158
    47    1947.947    A        5.771238    0.331687
    48    3089.664    A        1.020309    0.140833
    49    3264.998    A        1.120920    0.249953
    50    3304.940    A        1.129305    0.682875
    51    3569.793    A        1.039439    0.003632
    52    3608.887    A        1.067200    0.024807
    53    3610.212    A        1.066753    0.019240
    54    3632.306    A        1.068847    0.022309
    55    3724.308    A        1.110009    0.003151
    56    3726.594    A        1.110295    0.000187
    57    3739.961    A        1.107031    0.006360
    58    3746.822    A        1.100201    0.419572
    59    3749.087    A        1.110894    0.010101
    60    3768.511    A        1.110305    0.012932

     -------------------------------
     THERMOCHEMISTRY AT T=  298.15 K
     -------------------------------

 USING IDEAL GAS, RIGID ROTOR, HARMONIC NORMAL MODE APPROXIMATIONS.
 P=  1.01325E+05 PASCAL.
 ALL FREQUENCIES ARE SCALED BY   1.00000
 THE MOMENTS OF INERTIA ARE (IN AMU*BOHR**2)
            485.66901           768.11932           920.03783
 THE ROTATIONAL SYMMETRY NUMBER IS  1.0
 THE ROTATIONAL CONSTANTS ARE (IN GHZ)
      3.71259     2.34741     1.95980
   1 IMAGINARY FREQUENCY VIBRATION(S) IS(ARE) EXCLUDED
     FROM THE FOLLOWING THERMOCHEMICAL ANALYSIS.
      8 -     60 VIBRATIONAL MODES ARE USED IN THERMOCHEMISTRY.
 THE HARMONIC ZERO POINT ENERGY IS (SCALED BY   1.000)
        0.211920 HARTREE/MOLECULE    46510.949014 CM**-1/MOLECULE 
      132.981610 KCAL/MOL              556.395055 KJ/MOL

               Q               LN Q
 ELEC.     1.00000E+00       0.000000
 TRANS.    3.70351E+07      17.427377
 ROT.      2.09715E+05      12.253503
 VIB.      1.43291E+01       2.662292
 TOT.      1.11291E+14      32.343172

              E         H         G         CV        CP        S
           KJ/MOL    KJ/MOL    KJ/MOL   J/MOL-K   J/MOL-K   J/MOL-K
 ELEC.      0.000     0.000     0.000     0.000     0.000     0.000
 TRANS.     3.718     6.197   -43.201    12.472    20.786   165.684
 ROT.       3.718     3.718   -30.376    12.472    12.472   114.352
 VIB.     567.059   567.059   549.795    80.625    80.625    57.903
 TOTAL    574.496   576.975   476.218   105.568   113.883   337.940
 VIB. THERMAL CORRECTION E(T)-E(0) = H(T)-H(0) =     10664.096 J/MOL

              E         H         G         CV        CP        S
         KCAL/MOL  KCAL/MOL  KCAL/MOL CAL/MOL-K CAL/MOL-K CAL/MOL-K
 ELEC.      0.000     0.000     0.000     0.000     0.000     0.000
 TRANS.     0.889     1.481   -10.325     2.981     4.968    39.600
 ROT.       0.889     0.889    -7.260     2.981     2.981    27.331
 VIB.     135.530   135.530   131.404    19.270    19.270    13.839
 TOTAL    137.308   137.900   113.819    25.231    27.219    80.769
 VIB. THERMAL CORRECTION E(T)-E(0) = H(T)-H(0) =      2548.780 CAL/MOL
 ......END OF NORMAL COORDINATE ANALYSIS......
 STEP CPU TIME =     0.01 TOTAL CPU TIME =         75.0 (      1.2 MIN)
 TOTAL WALL CLOCK TIME=         75.5 SECONDS, CPU UTILIZATION IS    99.26%
               580000  WORDS OF DYNAMIC MEMORY USED
 EXECUTION OF GAMESS TERMINATED NORMALLY Tue Nov 16 07:21:20 2021
 DDI: 263640 bytes (0.3 MB / 0 MWords) used by master data server.

 ----------------------------------------
 CPU timing information for all processes
 ========================================
 0: 73.954 + 1.28 = 74.982
 ----------------------------------------
 ddikick.x: exited gracefully.
----- accounting info -----
Files used on the master node chemcompute-node-0.novalocal were:
-rw-r--r--. 1 chemcomp chemcomp     1522 Nov 16 07:20 /scratch/307572/343613.F05
-rw-rw-r--. 1 chemcomp chemcomp  8100720 Nov 16 07:21 /scratch/307572/343613.F08
-rw-rw-r--. 1 chemcomp chemcomp 70451200 Nov 16 07:21 /scratch/307572/343613.F10
-rw-rw-r--. 1 chemcomp chemcomp   564960 Nov 16 07:21 /scratch/307572/343613.F18
Tue Nov 16 07:21:23 UTC 2021
0.177u 0.121s 1:21.16 0.3%	0+0k 8+216io 0pf+0w
Finishing Up...
Looking for IR data...
Looking for Raman data...
vibramans not found
Looking for thermodynamics data...
Looking for UV-Vis data...
307572
