----- GAMESS execution script 'rungms' -----
This job is running on host chemcompute-node-0.novalocal
under operating system Linux at Sun Nov 14 22:29:46 UTC 2021
SLURM has assigned the following compute nodes to this run:
chemcompute-node-0
Available scratch disk space (Kbyte units) at beginning of the job is
Filesystem     1K-blocks     Used Available Use% Mounted on
/dev/sda1       62903276 16963716  45939560  27% /
GAMESS temporary binary files will be written to /scratch/306552
GAMESS supplementary output files will be written to /data/slurm/342563
Copying input file 342563.inp to your run's scratch directory...
The generated host list is
chemcompute-node-0.novalocal

 Distributed Data Interface kickoff program.
 Initiating 1 compute processes on 1 nodes to run the following command:
 /data/gamess-2019R1-ddi/gamess.00.x 342563 

          ******************************************************
          *         GAMESS VERSION = 30 JUN 2019 (R1)          *
          *             FROM IOWA STATE UNIVERSITY             *
          * M.W.SCHMIDT, K.K.BALDRIDGE, J.A.BOATZ, S.T.ELBERT, *
          *   M.S.GORDON, J.H.JENSEN, S.KOSEKI, N.MATSUNAGA,   *
          *          K.A.NGUYEN, S.J.SU, T.L.WINDUS,           *
          *       TOGETHER WITH M.DUPUIS, J.A.MONTGOMERY       *
          *         J.COMPUT.CHEM.  14, 1347-1363(1993)        *
          **************** 64 BIT LINUX VERSION ****************

  SINCE 1993, STUDENTS AND POSTDOCS WORKING AT IOWA STATE UNIVERSITY
  AND ALSO IN THEIR VARIOUS JOBS AFTER LEAVING ISU HAVE MADE IMPORTANT
  CONTRIBUTIONS TO THE CODE:
     IVANA ADAMOVIC, CHRISTINE AIKENS, YURI ALEXEEV, POOJA ARORA,
     ANDREY ASADCHEV, ROB BELL, PRADIPTA BANDYOPADHYAY, JONATHAN BENTZ,
     COLLEEN BERTONI, BRETT BODE, KURT BRORSEN, CALEB CARLIN, GALINA CHABAN,
     WEI CHEN, CHEOL HO CHOI, PAUL DAY, ALBERT DEFUSCO, NUWAN DESILVA,
     TIM DUDLEY, DMITRI FEDOROV, ALEX FINDLATER, GRAHAM FLETCHER, 
     MARK FREITAG, KURT GLAESEMANN, ANASTASIA GUNINA,
     DAN KEMP, GRANT MERRILL, NORIYUKI MINEZAWA, JONATHAN MULLIN,
     TAKESHI NAGATA, SEAN NEDD, HEATHER NETZLOFF, BOSILJKA NJEGIC, RYAN OLSON,
     MIKE PAK, BUU PHAM,
     SPENCER PRUITT, LUKE ROSKOP, JIM SHOEMAKER, LYUDMILA SLIPCHENKO,
     TONY SMITH, SAROM SOK LEANG, JIE SONG, TETSUYA TAKETSUGU, SIMON WEBB,
     PENG XU, SOOHAENG YOO, FEDERICO ZAHARIEV

  ADDITIONAL CODE HAS BEEN PROVIDED BY COLLABORATORS IN OTHER GROUPS:
     IOWA STATE UNIVERSITY:
          JOE IVANIC, AARON WEST, LAIMUTIS BYTAUTAS, KLAUS RUEDENBERG
     UNIVERSITY OF TOKYO: KIMIHIKO HIRAO, TAKAHITO NAKAJIMA,
          TAKAO TSUNEDA, MUNEAKI KAMIYA, SUSUMU YANAGISAWA,
          KIYOSHI YAGI, MAHITO CHIBA, SEIKEN TOKURA, NAOAKI KAWAKAMI
     UNIVERSITY OF AARHUS: FRANK JENSEN
     UNIVERSITY OF IOWA: VISVALDAS KAIRYS, HUI LI
     NATIONAL INST. OF STANDARDS AND TECHNOLOGY: WALT STEVENS, DAVID GARMER
     UNIVERSITY OF PISA: BENEDETTA MENNUCCI, JACOPO TOMASI
     UNIVERSITY OF MEMPHIS: HENRY KURTZ, PRAKASHAN KORAMBATH
     UNIVERSITY OF ALBERTA: TOBY ZENG, MARIUSZ KLOBUKOWSKI
     UNIVERSITY OF NEW ENGLAND: MARK SPACKMAN
     MIE UNIVERSITY: HIROAKI UMEDA
     NAT. INST. OF ADVANCED INDUSTRIAL SCIENCE AND TECHNOLOGY: KAZUO KITAURA
     MICHIGAN STATE UNIVERSITY:
          KAROL KOWALSKI, MARTA WLOCH, JEFFREY GOUR, JESSE LUTZ,
          WEI LI, JUN SHEN, J. EMILIANO DEUSTUA, PIOTR PIECUCH
     UNIVERSITY OF MINNESOTA:
          YINAN SHU
     UNIVERSITY OF SILESIA: MONIKA MUSIAL, STANISLAW KUCHARSKI
     FACULTES UNIVERSITAIRES NOTRE-DAME DE LA PAIX:
          OLIVIER QUINET, BENOIT CHAMPAGNE
     UNIVERSITY OF CALIFORNIA - SANTA BARBARA: BERNARD KIRTMAN
     INSTITUTE FOR MOLECULAR SCIENCE:
          KAZUYA ISHIMURA, MICHIO KATOUDA, AND SHIGERU NAGASE
     UNIVERSITY OF NOTRE DAME: ANNA POMOGAEVA, DAN CHIPMAN
     KYUSHU UNIVERSITY:
          HARUYUKI NAKANO,
          FENG LONG GU, JACEK KORCHOWIEC, MARCIN MAKOWSKI, AND YURIKO AOKI,
          HIROTOSHI MORI AND EISAKU MIYOSHI
     PENNSYLVANIA STATE UNIVERSITY:
          TZVETELIN IORDANOV, CHET SWALINA, JONATHAN SKONE,
          SHARON HAMMES-SCHIFFER
     WASEDA UNIVERSITY:
          MASATO KOBAYASHI, TOMOKO AKAMA, TSUGUKI TOUMA,
          TAKESHI YOSHIKAWA, YASUHIRO IKABATA, JUNJI SEINO,
          YUYA NAKAJIMA, HIROMI NAKAI
     NANJING UNIVERSITY: SHUHUA LI
     UNIVERSITY OF NEBRASKA:
          PEIFENG SU, DEJUN SI, NANDUN THELLAMUREGE, YALI WANG, HUI LI
     UNIVERSITY OF ZURICH: ROBERTO PEVERATI, KIM BALDRIDGE
     N. COPERNICUS UNIVERSITY AND JACKSON STATE UNIVERSITY:
          MARIA BARYSZ
     UNIVERSITY OF COPENHAGEN: Jimmy Kromann, CASPER STEINMANN
     TOKYO INSTITUTE OF TECHNOLOGY: HIROYA NAKATA
     NAGOYA UNIVERSITY: YOSHIO NISHIMOTO, STEPHAN IRLE
     MOSCOW STATE UNIVERSITY: VLADIMIR MIRONOV
     A.N.NESMEYANOV INSTITUTE OF ORGANOELEMENT COMPOUNDS OF RUSSIAN ACADEMY OF SCIENCES:
          IGOR S. GERASIMOV

 EXECUTION OF GAMESS BEGUN Sun Nov 14 22:29:47 2021

            ECHO OF THE FIRST FEW INPUT CARDS -
 INPUT CARD>!                                                                               
 INPUT CARD>!   GAMESS Calculation input file                                               
 INPUT CARD>!                                                                               
 INPUT CARD>!                                                                               
 INPUT CARD> $CONTRL SCFTYP=RHF MAXIT=200 RUNTYP=OPTIMIZE                                   
 INPUT CARD>         COORD=UNIQUE MULT=1                                                    
 INPUT CARD>         ICHARG=1                                                               
 INPUT CARD>         DFTTYP=B3LYP                                                           
 INPUT CARD>         MOLPLT=.FALSE. PLTORB=.FALSE.  $END                                    
 INPUT CARD> $SYSTEM TIMLIM=2879 MWORDS=250  $END                                           
 INPUT CARD>                                                                                
 INPUT CARD> $STATPT OPTTOL=0.0005 NSTEP=999 $END                                           
 INPUT CARD> $STATPT IHREP=0  $END                                                          
 INPUT CARD>                                                                                
 INPUT CARD> $DFT    METHOD=GRID  NLEB=590  $END                                            
 INPUT CARD>                                                                                
 INPUT CARD> $BASIS  GBASIS=N31 NGAUSS=6                                                    
 INPUT CARD>         NDFUNC=1   NPFUNC=0  $END                                              
 INPUT CARD>                                                                                
 INPUT CARD> $SCF    DIRSCF=.T. $END                                                        
 INPUT CARD> $GUESS  GUESS=HUCKEL  $END                                                     
 INPUT CARD>                                                                                
 INPUT CARD> $DATA                                                                          
 INPUT CARD>                                                                                
 INPUT CARD>  Cs                                                                            
 INPUT CARD>                                                                                
 INPUT CARD>C     6.0    -0.86     0.14    -0.75                                            
 INPUT CARD>C     6.0    -0.40     1.47    -1.23                                            
 INPUT CARD>C     6.0    -0.48     2.38    -0.00                                            
 INPUT CARD>Br   35.0     0.51    -0.99     0.00                                            
 INPUT CARD>H     1.0    -1.55    -0.44    -1.36                                            
 INPUT CARD>H     1.0    -1.06     1.85    -2.01                                            
 INPUT CARD>H     1.0     0.61     1.46    -1.66                                            
 INPUT CARD>H     1.0    -1.44     2.91    -0.00                                            
 INPUT CARD>H     1.0     0.30     3.15    -0.00                                            
 INPUT CARD> $END                                                                           
 INPUT CARD>                                                                                
 INPUT CARD>                                                                                
 INPUT CARD>! Customizations after this line are persisted when using Do More Calculations  
  250000000 WORDS OF MEMORY AVAILABLE

     BASIS OPTIONS
     -------------
     GBASIS=N31          IGAUSS=       6      POLAR=POPN31  
     NDFUNC=       1     NFFUNC=       0     DIFFSP=       F
     NPFUNC=       0      DIFFS=       F     BASNAM=        


     RUN TITLE
     ---------
                                                                                 

 THE POINT GROUP OF THE MOLECULE IS CS      
 THE ORDER OF THE PRINCIPAL AXIS IS     0

 ATOM      ATOMIC                      COORDINATES (BOHR)
           CHARGE         X                   Y                   Z
 C           6.0    -1.6251643494        0.2645616383        1.4172944908
 C           6.0    -1.6251643494        0.2645616383       -1.4172944908
 C           6.0    -0.7558903951        2.7778972020        2.3243629649
 C           6.0    -0.7558903951        2.7778972020       -2.3243629649
 C           6.0    -0.9070684741        4.4975478508       -0.0000000000
 BR         35.0     0.9637602537       -1.8708287278        0.0000000000
 H           1.0    -2.9290752810       -0.8314794346        2.5700273433
 H           1.0    -2.9290752810       -0.8314794346       -2.5700273433
 H           1.0    -2.0031095470        3.4959930773        3.7983492353
 H           1.0    -2.0031095470        3.4959930773       -3.7983492353
 H           1.0     1.1527328525        2.7589999421        3.1369451396
 H           1.0     1.1527328525        2.7589999421       -3.1369451396
 H           1.0    -2.7212054223        5.4991026243       -0.0000000000
 H           1.0     0.5669177963        5.9526368613       -0.0000000000

          INTERNUCLEAR DISTANCES (ANGS.)
          ------------------------------

                1 C          2 C          3 C          4 C          5 C     

   1 C       0.0000000    1.5000000 *  1.4869095 *  2.4291768 *  2.3925927 *
   2 C       1.5000000 *  0.0000000    2.4291768 *  1.4869095 *  2.3925927 *
   3 C       1.4869095 *  2.4291768 *  0.0000000    2.4600000 *  1.5321227 *
   4 C       2.4291768 *  1.4869095 *  2.4600000 *  0.0000000    1.5321227 *
   5 C       2.3925927 *  2.3925927 *  1.5321227 *  1.5321227 *  0.0000000  
   6 BR      1.9277707 *  1.9277707 *  2.8969984 *  2.8969984 *  3.5124066  
   7 H       1.0883933 *  2.2944716 *  2.2332711 *  3.4174113    3.3086100  
   8 H       2.2944716 *  1.0883933 *  3.4174113    2.2332711 *  3.3086100  
   9 H       2.1334713 *  3.2529525    1.0901376 *  3.3283029    2.1581010 *
  10 H       3.2529525    2.1334713 *  3.3283029    1.0901376 *  2.1581010 *
  11 H       2.1751782 *  3.1163119    1.0977705 *  3.0614212    2.1886297 *
  12 H       3.1163119    2.1751782 *  3.0614212    1.0977705 *  2.1886297 *
  13 H       2.9277637 *  2.9277637 *  2.1605786 *  2.1605786 *  1.0965856 *
  14 H       3.3118273    3.3118273    2.1966566 *  2.1966566 *  1.0960383 *

                6 BR         7 H          8 H          9 H         10 H     

   1 C       1.9277707 *  1.0883933 *  2.2944716 *  2.1334713 *  3.2529525  
   2 C       1.9277707 *  2.2944716 *  1.0883933 *  3.2529525    2.1334713 *
   3 C       2.8969984 *  2.2332711 *  3.4174113    1.0901376 *  3.3283029  
   4 C       2.8969984 *  3.4174113    2.2332711 *  3.3283029    1.0901376 *
   5 C       3.5124066    3.3086100    3.3086100    2.1581010 *  2.1581010 *
   6 BR      0.0000000    2.5289721 *  2.5289721 *  3.8171455    3.8171455  
   7 H       2.5289721 *  0.0000000    2.7200000 *  2.4303703 *  4.1037909  
   8 H       2.5289721 *  2.7200000 *  0.0000000    4.1037909    2.4303703 *
   9 H       3.8171455    2.4303703 *  4.1037909    0.0000000    4.0200000  
  10 H       3.8171455    4.1037909    2.4303703 *  4.0200000    0.0000000  
  11 H       2.9610978 *  2.8923347 *  4.1708512    1.7502857 *  4.0509135  
  12 H       2.9610978 *  4.1708512    2.8923347 *  4.0509135    1.7502857 *
  13 H       4.3603326    3.6172089    3.6172089    2.3039314 *  2.3039314 *
  14 H       4.1453227    4.2614786    4.2614786    2.7531255 *  2.7531255 *

               11 H         12 H         13 H         14 H     

   1 C       2.1751782 *  3.1163119    2.9277637 *  3.3118273  
   2 C       3.1163119    2.1751782 *  2.9277637 *  3.3118273  
   3 C       1.0977705 *  3.0614212    2.1605786 *  2.1966566 *
   4 C       3.0614212    1.0977705 *  2.1605786 *  2.1966566 *
   5 C       2.1886297 *  2.1886297 *  1.0965856 *  1.0960383 *
   6 BR      2.9610978 *  2.9610978 *  4.3603326    4.1453227  
   7 H       2.8923347 *  4.1708512    3.6172089    4.2614786  
   8 H       4.1708512    2.8923347 *  3.6172089    4.2614786  
   9 H       1.7502857 *  4.0509135    2.3039314 *  2.7531255 *
  10 H       4.0509135    1.7502857 *  2.3039314 *  2.7531255 *
  11 H       0.0000000    3.3200000    3.0100831    2.3891002 *
  12 H       3.3200000    0.0000000    3.0100831    2.3891002 *
  13 H       3.0100831    3.0100831    0.0000000    1.7564737 *
  14 H       2.3891002 *  2.3891002 *  1.7564737 *  0.0000000  

  * ... LESS THAN  3.000


     ATOMIC BASIS SET
     ----------------
 THE CONTRACTED PRIMITIVE FUNCTIONS HAVE BEEN UNNORMALIZED
 THE CONTRACTED BASIS FUNCTIONS ARE NOW NORMALIZED TO UNITY

  SHELL TYPE  PRIMITIVE        EXPONENT          CONTRACTION COEFFICIENT(S)

 C         

      5   S       1          3047.5248800    0.001834737132
      5   S       2           457.3695180    0.014037322813
      5   S       3           103.9486850    0.068842622264
      5   S       4            29.2101553    0.232184443216
      5   S       5             9.2866630    0.467941348435
      5   S       6             3.1639270    0.362311985337

      6   L       7             7.8682723   -0.119332419775    0.068999066591
      6   L       8             1.8812885   -0.160854151696    0.316423960957
      6   L       9             0.5442493    1.143456437840    0.744308290898

      7   L      10             0.1687145    1.000000000000    1.000000000000

      8   D      11             0.8000000    1.000000000000

 C         

     13   S      12          3047.5248800    0.001834737132
     13   S      13           457.3695180    0.014037322813
     13   S      14           103.9486850    0.068842622264
     13   S      15            29.2101553    0.232184443216
     13   S      16             9.2866630    0.467941348435
     13   S      17             3.1639270    0.362311985337

     14   L      18             7.8682723   -0.119332419775    0.068999066591
     14   L      19             1.8812885   -0.160854151696    0.316423960957
     14   L      20             0.5442493    1.143456437840    0.744308290898

     15   L      21             0.1687145    1.000000000000    1.000000000000

     16   D      22             0.8000000    1.000000000000

 C         

     17   S      23          3047.5248800    0.001834737132
     17   S      24           457.3695180    0.014037322813
     17   S      25           103.9486850    0.068842622264
     17   S      26            29.2101553    0.232184443216
     17   S      27             9.2866630    0.467941348435
     17   S      28             3.1639270    0.362311985337

     18   L      29             7.8682723   -0.119332419775    0.068999066591
     18   L      30             1.8812885   -0.160854151696    0.316423960957
     18   L      31             0.5442493    1.143456437840    0.744308290898

     19   L      32             0.1687145    1.000000000000    1.000000000000

     20   D      33             0.8000000    1.000000000000

 BR        

     21   S      34        113718.2000000    0.001717696020
     21   S      35         17074.4400000    0.013167440157
     21   S      36          3889.5760000    0.065045530775
     21   S      37          1097.0960000    0.226950502703
     21   S      38           352.0624000    0.476835705678
     21   S      39           120.7002000    0.358367704268

     22   L      40          2471.1380000    0.002243686934    0.003790181843
     22   L      41           589.3838000    0.029948529125    0.029959788758
     22   L      42           191.8738000    0.125600896330    0.131822794533
     22   L      43            72.9533900   -0.000983278571    0.343270785764
     22   L      44            30.0583900   -0.601314082428    0.464234480747
     22   L      45            12.5292700   -0.491398285640    0.207938691376

     23   L      46           109.6411000   -0.005975683203   -0.006907482641
     23   L      47            38.5894800    0.055421221885   -0.030414318419
     23   L      48            16.3781800    0.268120009121    0.046027247607
     23   L      49             7.2218360   -0.154360605251    0.365068881019
     23   L      50             3.2636970   -0.720630624515    0.494923174267
     23   L      51             1.4654990   -0.331643711282    0.209039389131

     24   L      52             2.1036510    0.302902925312   -0.028267138833
     24   L      53             0.7547050   -0.215265917988    0.350306485538
     24   L      54             0.3005140   -0.963394180505    0.718244570349

     25   L      55             0.1090710    1.000000000000    1.000000000000

     26   D      56            62.2551400    0.077042284602
     26   D      57            17.3128400    0.370738374024
     26   D      58             5.6079150    0.709762750271

     27   D      59             1.7464860    1.000000000000

     28   D      60             0.4366000    1.000000000000

 H         

     31   S      61            18.7311370    0.033494604338
     31   S      62             2.8253944    0.234726953484
     31   S      63             0.6401217    0.813757326146

     32   S      64             0.1612778    1.000000000000

 H         

     35   S      65            18.7311370    0.033494604338
     35   S      66             2.8253944    0.234726953484
     35   S      67             0.6401217    0.813757326146

     36   S      68             0.1612778    1.000000000000

 H         

     39   S      69            18.7311370    0.033494604338
     39   S      70             2.8253944    0.234726953484
     39   S      71             0.6401217    0.813757326146

     40   S      72             0.1612778    1.000000000000

 H         

     41   S      73            18.7311370    0.033494604338
     41   S      74             2.8253944    0.234726953484
     41   S      75             0.6401217    0.813757326146

     42   S      76             0.1612778    1.000000000000

 H         

     43   S      77            18.7311370    0.033494604338
     43   S      78             2.8253944    0.234726953484
     43   S      79             0.6401217    0.813757326146

     44   S      80             0.1612778    1.000000000000

 TOTAL NUMBER OF BASIS SET SHELLS             =   44
 NUMBER OF CARTESIAN GAUSSIAN BASIS FUNCTIONS =  126
 NUMBER OF ELECTRONS                          =   72
 CHARGE OF MOLECULE                           =    1
 SPIN MULTIPLICITY                            =    1
 NUMBER OF OCCUPIED ORBITALS (ALPHA)          =   36
 NUMBER OF OCCUPIED ORBITALS (BETA )          =   36
 TOTAL NUMBER OF ATOMS                        =   14
 THE NUCLEAR REPULSION ENERGY IS      439.1683049856

 SELECTED MURRAY-HANDY-LAMING RADIAL GRID

 LEGACY BECKE'S FUZZY CELL METHOD

 SELECTED ORIGINAL BECKE'S PARTITION FUNCTION

     LEBEDEV GRID-BASED DFT OPTIONS
     ------------------------------
     DFTTYP=B3LYP   
     NRAD  =      96     NLEB  =     590
     NRAD0 =      24     NLEB0 =     110
     SWOFF =    5.00E-03 (PURE SCF -> DFT)
     SWITCH=    3.00E-04 (COARSE -> TIGHT GRID)
     THRESH=    0.00E+00 GTHRE=    1.00E+00

 GRIMME'S EMPIRICAL DISPERSION CORRECTION= F

     $CONTRL OPTIONS
     ---------------
 SCFTYP=RHF          RUNTYP=OPTIMIZE     EXETYP=RUN     
 MPLEVL=       0     CITYP =NONE         CCTYP =NONE         VBTYP =NONE    
 DFTTYP=B3LYP        TDDFT =NONE    
 MULT  =       1     ICHARG=       1     NZVAR =       0     COORD =UNIQUE  
 PP    =NONE         RELWFN=NONE         LOCAL =NONE         NUMGRD=       F
 ISPHER=      -1     NOSYM =       0     MAXIT =     200     UNITS =ANGS    
 PLTORB=       F     MOLPLT=       F     AIMPAC=       F     FRIEND=        
 NPRINT=       7     IREST =       0     GEOM  =INPUT   
 NORMF =       0     NORMP =       0     ITOL  =      20     ICUT  =       9
 INTTYP=BEST         GRDTYP=BEST         QMTTOL= 1.0E-06

     $SYSTEM OPTIONS
     ---------------
  REPLICATED MEMORY=   250000000 WORDS (ON EVERY NODE).
 DISTRIBUTED MEMDDI=           0 MILLION WORDS IN AGGREGATE,
 MEMDDI DISTRIBUTED OVER   1 PROCESSORS IS           0 WORDS/PROCESSOR.
 TOTAL MEMORY REQUESTED ON EACH PROCESSOR=   250000000 WORDS.
 TIMLIM=        2879.00 MINUTES, OR       2.0 DAYS.
 PARALL= F  BALTYP=  DLB     KDIAG=    0  COREFL= F
 MXSEQ2=     300 MXSEQ3=     150  mem10=         0

          ----------------
          PROPERTIES INPUT
          ----------------

     MOMENTS            FIELD           POTENTIAL          DENSITY
 IEMOM =       1   IEFLD =       0   IEPOT =       0   IEDEN =       0
 WHERE =COMASS     WHERE =NUCLEI     WHERE =NUCLEI     WHERE =NUCLEI  
 OUTPUT=BOTH       OUTPUT=BOTH       OUTPUT=BOTH       OUTPUT=BOTH    
 IEMINT=       0   IEFINT=       0                     IEDINT=       0
                                                       MORB  =       0
          EXTRAPOLATION IN EFFECT
          DIIS IN EFFECT
 ORBITAL PRINTING OPTION: NPREO=     1   126     2     1

     -------------------------------
     INTEGRAL TRANSFORMATION OPTIONS
     -------------------------------
     NWORD  =            0
     CUTOFF = 1.0E-09     MPTRAN =       0
     DIRTRF =       T     AOINTS =DUP     

          ----------------------
          INTEGRAL INPUT OPTIONS
          ----------------------
 NOPK  =       1 NORDER=       0 SCHWRZ=       T

     ------------------------------------------
     THE POINT GROUP IS CS , NAXIS= 0, ORDER= 2
     ------------------------------------------

     DIMENSIONS OF THE SYMMETRY SUBSPACES ARE
 A'  =   76     A'' =   50

 ..... DONE SETTING UP THE RUN .....
 STEP CPU TIME =     0.02 TOTAL CPU TIME =          0.0 (      0.0 MIN)
 TOTAL WALL CLOCK TIME=          0.0 SECONDS, CPU UTILIZATION IS    50.00%


          -----------------------------
          STATIONARY POINT LOCATION RUN
          -----------------------------

 OBTAINING INITIAL HESSIAN, HESS=GUESS   
 CARTESIAN COORDINATE OPTIMIZATION USING BADGER'S RULE FORCE CONSTANT GUESS

          PARAMETERS CONTROLLING GEOMETRY SEARCH ARE
          METHOD =QA                  UPHESS =BFGS    
          NNEG   =         0          NFRZ   =         0
          NSTEP  =       999          IFOLOW =         1
          HESS   =GUESS               RESTAR =         F
          IHREP  =         0          HSSEND =         F
          NPRT   =         0          NPUN   =         0
          OPTTOL = 5.000E-04          RMIN   = 1.500E-03
          RMAX   = 1.000E-01          RLIM   = 7.000E-02
          DXMAX  = 3.000E-01          PURIFY =         F
          MOVIE  =         F          TRUPD  =         T
          TRMAX  = 5.000E-01          TRMIN  = 5.000E-02
          ITBMAT =         5          STPT   =         F
          STSTEP = 1.000E-02          PROJCT=          T

 BEGINNING GEOMETRY SEARCH POINT NSERCH=   0 ...

 COORDINATES OF SYMMETRY UNIQUE ATOMS (ANGS)
   ATOM   CHARGE       X              Y              Z
 ------------------------------------------------------------
 C           6.0  -0.8600000000   0.1400000000  -0.7500000000
 C           6.0  -0.4000000000   1.4700000000  -1.2300000000
 C           6.0  -0.4800000000   2.3800000000  -0.0000000000
 BR         35.0   0.5100000000  -0.9900000000   0.0000000000
 H           1.0  -1.5500000000  -0.4400000000  -1.3600000000
 H           1.0  -1.0600000000   1.8500000000  -2.0100000000
 H           1.0   0.6100000000   1.4600000000  -1.6600000000
 H           1.0  -1.4400000000   2.9100000000  -0.0000000000
 H           1.0   0.3000000000   3.1500000000  -0.0000000000
 COORDINATES OF ALL ATOMS ARE (ANGS)
   ATOM   CHARGE       X              Y              Z
 ------------------------------------------------------------
 C           6.0  -0.8600000000   0.1400000000   0.7500000000
 C           6.0  -0.8600000000   0.1400000000  -0.7500000000
 C           6.0  -0.4000000000   1.4700000000   1.2300000000
 C           6.0  -0.4000000000   1.4700000000  -1.2300000000
 C           6.0  -0.4800000000   2.3800000000  -0.0000000000
 BR         35.0   0.5100000000  -0.9900000000   0.0000000000
 H           1.0  -1.5500000000  -0.4400000000   1.3600000000
 H           1.0  -1.5500000000  -0.4400000000  -1.3600000000
 H           1.0  -1.0600000000   1.8500000000   2.0100000000
 H           1.0  -1.0600000000   1.8500000000  -2.0100000000
 H           1.0   0.6100000000   1.4600000000   1.6600000000
 H           1.0   0.6100000000   1.4600000000  -1.6600000000
 H           1.0  -1.4400000000   2.9100000000  -0.0000000000
 H           1.0   0.3000000000   3.1500000000  -0.0000000000

          ********************
          1 ELECTRON INTEGRALS
          ********************
 ...... END OF ONE-ELECTRON INTEGRALS ......
 STEP CPU TIME =     0.03 TOTAL CPU TIME =          0.0 (      0.0 MIN)
 TOTAL WALL CLOCK TIME=          0.1 SECONDS, CPU UTILIZATION IS    83.33%

          -------------
          GUESS OPTIONS
          -------------
          GUESS =HUCKEL            NORB  =       0          NORDER=       0
          MIX   =       F          PRTMO =       F          PUNMO =       F
          TOLZ  = 1.0E-08          TOLE  = 1.0E-05
          SYMDEN=       F          PURIFY=       F

 INITIAL GUESS ORBITALS GENERATED BY HUCKEL   ROUTINE.
 HUCKEL GUESS REQUIRES    137046 WORDS.

 SYMMETRIES FOR INITIAL GUESS ORBITALS FOLLOW.   BOTH SET(S).
    36 ORBITALS ARE OCCUPIED (   19 CORE ORBITALS).
    20=A'      21=A'      22=A''     23=A'      24=A'      25=A''     26=A'  
    27=A'      28=A''     29=A'      30=A'      31=A''     32=A'      33=A'' 
    34=A''     35=A'      36=A'      37=A''     38=A'      39=A''     40=A'  
    41=A'      42=A'      43=A'      44=A'      45=A'      46=A'  
 ...... END OF INITIAL ORBITAL SELECTION ......
 STEP CPU TIME =     0.04 TOTAL CPU TIME =          0.1 (      0.0 MIN)
 TOTAL WALL CLOCK TIME=          0.1 SECONDS, CPU UTILIZATION IS    81.82%

                    ----------------------
                    AO INTEGRAL TECHNOLOGY
                    ----------------------
     S,P,L SHELL ROTATED AXIS INTEGRALS, REPROGRAMMED BY
        KAZUYA ISHIMURA (IMS) AND JOSE SIERRA (SYNSTAR).
     S,P,D,L SHELL ROTATED AXIS INTEGRALS PROGRAMMED BY
        KAZUYA ISHIMURA (INSTITUTE FOR MOLECULAR SCIENCE).
     S,P,D,F,G SHELL TO TOTAL QUARTET ANGULAR MOMENTUM SUM 5,
        ERIC PROGRAM BY GRAHAM FLETCHER (ELORET AND NASA ADVANCED
        SUPERCOMPUTING DIVISION, AMES RESEARCH CENTER).
     S,P,D,F,G,L SHELL GENERAL RYS QUADRATURE PROGRAMMED BY
        MICHEL DUPUIS (PACIFIC NORTHWEST NATIONAL LABORATORY).

          --------------------
          2 ELECTRON INTEGRALS
          --------------------

 DIRECT SCF METHOD SKIPS INTEGRAL STORAGE ON DISK.
 DIRECT TRANSFORMATION SKIPS AO INTEGRAL STORAGE ON DISK.
  ...... END OF TWO-ELECTRON INTEGRALS .....
 STEP CPU TIME =     0.01 TOTAL CPU TIME =          0.1 (      0.0 MIN)
 TOTAL WALL CLOCK TIME=          0.1 SECONDS, CPU UTILIZATION IS    76.92%

          --------------------------
             R-B3LYP SCF CALCULATION
          --------------------------

     NUCLEAR ENERGY =       439.1683049856
     MAXIT =  200     NPUNCH=    2
     EXTRAP=T  DAMP=F  SHIFT=F  RSTRCT=F  DIIS=T  DEM=F  SOSCF=F
         DENSITY MATRIX CONVERGENCE THRESHOLD=  2.00E-05
     COARSE -> FINE DFT GRID SWITCH THRESHOLD=  3.00E-04 (SWITCH IN $DFT)
                   HF -> DFT SWITCH THRESHOLD=  5.00E-03 (SWOFF IN $DFT)
     MEMORY REQUIRED FOR RHF ITERS=   1062582 WORDS.

 DIRECT SCF CALCULATION, SCHWRZ=T   FDIFF=T,  DIRTHR=  0.00E+00 NITDIR=10
 SCHWARZ INEQUALITY OVERHEAD:      7944 INTEGRALS, T=        0.01

 DFT CODE IS SWITCHING FROM THE FINE GRID NRAD= 96,  NLEB=  590
                      TO THE COARSE GRID NRAD0= 24, NLEB0=  110

     EXCHANGE FUNCTIONAL   =B88&HFX   
     CORRELATION FUNCTIONAL=LYP88&VWN5
     DFT THRESHOLD         =.504E-08
     GRID CHANGE THRESHOLD =.300E-03
 FOR AN EULER-MACLAURIN QUADRATURE USING  96 RADIAL POINTS:
 SMALLEST GAUSSIAN PRIMITIVE EXPONENT=        0.1090710000 OF TYPE -P-
 ON ATOM NUMBER   6 HAS RADIAL NORMALIZATION=  1.000000
  LARGEST GAUSSIAN PRIMITIVE EXPONENT=   113718.2000000000 OF TYPE -S-
 ON ATOM NUMBER   6 HAS RADIAL NORMALIZATION=  1.000010
 DFT IS SWITCHED OFF, PERFORMING PURE SCF UNTIL SWOFF THRESHOLD IS REACHED.

                                                                                   NONZERO     BLOCKS
 ITER EX DEM     TOTAL ENERGY        E CHANGE  DENSITY CHANGE    DIIS ERROR      INTEGRALS    SKIPPED
   1  0  0    -2764.4390096503 -2764.4390096503   0.750676077   8.216578198       13778248      42957
          * * *   INITIATING DIIS PROCEDURE   * * *
   2  1  0    -2765.7021788127    -1.2631691624   0.160530555   0.072354572       13768645      45298
   3  2  0    -2765.7654668999    -0.0632880871   0.043296797   0.046443293       13704304      48996
   4  3  0    -2765.7915058908    -0.0260389910   0.023575265   0.007438546       13620986      52541
   5  4  0    -2765.7927322055    -0.0012263147   0.007767169   0.002853494       13384371      58635
   6  5  0    -2765.7928662036    -0.0001339981   0.002571837   0.000719676       13157147      63369
 CONVERGED TO SWOFF, SO DFT CALCULATION IS NOW SWITCHED ON.
          * * *   INITIATING DIIS PROCEDURE   * * *
   7  6  0    -2768.6016284702    -2.8087622666   0.125751918   0.363342982       13775947      43377
   8  7  0    -2768.6291167178    -0.0274882476   0.094718278   0.019903447       13701920      49134
   9  8  0    -2768.6208627756     0.0082539422   0.078838259   0.027216172       13624033      51942
  10  9  0    -2768.6357813760    -0.0149186004   0.015858251   0.004990187       13576991      53675
  11 10  0    -2768.6360868863    -0.0003055103   0.001189423   0.000756954       13223874      62364
  12 11  0    -2768.6360941293    -0.0000072430   0.000246624   0.000154791       12796318      70311
 DFT CODE IS SWITCHING BACK TO THE FINE GRID
          * * *   INITIATING DIIS PROCEDURE   * * *
  13 12  0    -2768.6295027455     0.0065913839   0.007046473   0.005800310       13779773      42997
  14 13  0    -2768.6296624862    -0.0001597407   0.006050068   0.001001232       13334393      59370
  15 14  0    -2768.6296486855     0.0000138007   0.003543204   0.001358727       13046427      65820
  16 15  0    -2768.6296782108    -0.0000295253   0.000337768   0.000166968       12918428      68589
  17 16  0    -2768.6296784633    -0.0000002525   0.000117236   0.000039695       12323816      81584
  18 17  0    -2768.6296784817    -0.0000000185   0.000034330   0.000009820       11772927      92525
  19 18  0    -2768.6296784825    -0.0000000008   0.000003506   0.000002987       11009060     107984
  20 19  0    -2768.6296784826    -0.0000000002   0.000000922   0.000000363       10452670     117765

          -----------------
          DENSITY CONVERGED
          -----------------
     TIME TO FORM FOCK OPERATORS=      81.5 SECONDS (       4.1 SEC/ITER)
     FOCK TIME ON FIRST ITERATION=       0.9, LAST ITERATION=       8.7
     TIME TO SOLVE SCF EQUATIONS=       0.3 SECONDS (       0.0 SEC/ITER)

 FINAL R-B3LYP ENERGY IS    -2768.6296784826 AFTER  20 ITERATIONS
 DFT EXCHANGE + CORRELATION ENERGY =       -97.3229585450
 TOTAL ELECTRON NUMBER             =        72.0000049995

          ------------
          EIGENVECTORS
          ------------

                      1          2          3          4          5
                 -483.1172   -62.7759   -56.5967   -56.5946   -56.5923
                     A'         A'         A'         A''        A'  
    1  C  1  S    0.000001   0.000002   0.000080  -0.000071  -0.000020
    2  C  1  S    0.000016   0.000012   0.000525  -0.000394  -0.000089
    3  C  1  X   -0.000006  -0.000001   0.000008  -0.000027  -0.000047
    4  C  1  Y    0.000005   0.000003   0.000069  -0.000024  -0.000027
    5  C  1  Z    0.000002  -0.000005  -0.000121  -0.000028   0.000074
    6  C  1  S   -0.000024  -0.000012  -0.001114   0.002613   0.000232
    7  C  1  X   -0.000012  -0.000017  -0.000824   0.000724   0.000322
    8  C  1  Y    0.000001  -0.000028  -0.000187   0.000441   0.000380
    9  C  1  Z    0.000003   0.000015   0.000485  -0.001089  -0.000222
   10  C  1 XX   -0.000009  -0.000003  -0.000038  -0.000058  -0.000007
   11  C  1 YY   -0.000007  -0.000002   0.000025  -0.000048  -0.000039
   12  C  1 ZZ   -0.000001   0.000001   0.000079  -0.000033  -0.000033
   13  C  1 XY    0.000008   0.000005   0.000191  -0.000061   0.000012
   14  C  1 XZ    0.000005   0.000002   0.000101  -0.000068   0.000007
   15  C  1 YZ   -0.000004  -0.000004  -0.000125   0.000047   0.000017
   16  C  2  S    0.000001   0.000002   0.000080   0.000071  -0.000020
   17  C  2  S    0.000016   0.000012   0.000525   0.000394  -0.000089
   18  C  2  X   -0.000006  -0.000001   0.000008   0.000027  -0.000047
   19  C  2  Y    0.000005   0.000003   0.000069   0.000024  -0.000027
   20  C  2  Z   -0.000002   0.000005   0.000121  -0.000028  -0.000074
   21  C  2  S   -0.000024  -0.000012  -0.001114  -0.002613   0.000232
   22  C  2  X   -0.000012  -0.000017  -0.000824  -0.000724   0.000322
   23  C  2  Y    0.000001  -0.000028  -0.000187  -0.000441   0.000380
   24  C  2  Z   -0.000003  -0.000015  -0.000485  -0.001089   0.000222
   25  C  2 XX   -0.000009  -0.000003  -0.000038   0.000058  -0.000007
   26  C  2 YY   -0.000007  -0.000002   0.000025   0.000048  -0.000039
   27  C  2 ZZ   -0.000001   0.000001   0.000079   0.000033  -0.000033
   28  C  2 XY    0.000008   0.000005   0.000191   0.000061   0.000012
   29  C  2 XZ   -0.000005  -0.000002  -0.000101  -0.000068  -0.000007
   30  C  2 YZ    0.000004   0.000004   0.000125   0.000047  -0.000017
   31  C  3  S   -0.000000  -0.000002  -0.000039   0.000015   0.000018
   32  C  3  S   -0.000003  -0.000010  -0.000192   0.000087   0.000103
   33  C  3  X    0.000001  -0.000002  -0.000053   0.000027   0.000007
   34  C  3  Y   -0.000002   0.000001  -0.000010   0.000038   0.000002
   35  C  3  Z   -0.000001   0.000002  -0.000004   0.000008  -0.000014
   36  C  3  S    0.000008   0.000059   0.001356  -0.000867  -0.000640
   37  C  3  X   -0.000001   0.000017   0.000533  -0.000124  -0.000096
   38  C  3  Y   -0.000008  -0.000020  -0.000341   0.000435   0.000255
   39  C  3  Z   -0.000001  -0.000038  -0.000571   0.000377   0.000438
   40  C  3 XX    0.000001  -0.000003  -0.000065   0.000016   0.000035
   41  C  3 YY    0.000002  -0.000001  -0.000041  -0.000013   0.000001
   42  C  3 ZZ    0.000001  -0.000001  -0.000014   0.000018  -0.000002
   43  C  3 XY   -0.000001   0.000000  -0.000014   0.000028   0.000013
   44  C  3 XZ   -0.000000   0.000001   0.000017  -0.000027  -0.000007
   45  C  3 YZ    0.000001   0.000002   0.000031  -0.000038  -0.000026
   46  C  4  S   -0.000000  -0.000002  -0.000039  -0.000015   0.000018
   47  C  4  S   -0.000003  -0.000010  -0.000192  -0.000087   0.000103
   48  C  4  X    0.000001  -0.000002  -0.000053  -0.000027   0.000007
   49  C  4  Y   -0.000002   0.000001  -0.000010  -0.000038   0.000002
   50  C  4  Z    0.000001  -0.000002   0.000004   0.000008   0.000014
   51  C  4  S    0.000008   0.000059   0.001356   0.000867  -0.000640
   52  C  4  X   -0.000001   0.000017   0.000533   0.000124  -0.000096
   53  C  4  Y   -0.000008  -0.000020  -0.000341  -0.000435   0.000255
   54  C  4  Z    0.000001   0.000038   0.000571   0.000377  -0.000438
   55  C  4 XX    0.000001  -0.000003  -0.000065  -0.000016   0.000035
   56  C  4 YY    0.000002  -0.000001  -0.000041   0.000013   0.000001
   57  C  4 ZZ    0.000001  -0.000001  -0.000014  -0.000018  -0.000002
   58  C  4 XY   -0.000001   0.000000  -0.000014  -0.000028   0.000013
   59  C  4 XZ    0.000000  -0.000001  -0.000017  -0.000027   0.000007
   60  C  4 YZ   -0.000001  -0.000002  -0.000031  -0.000038   0.000026
   61  C  5  S   -0.000001   0.000000   0.000003   0.000000   0.000002
   62  C  5  S   -0.000002   0.000002   0.000025   0.000000  -0.000007
   63  C  5  X   -0.000000   0.000002   0.000047   0.000000  -0.000010
   64  C  5  Y    0.000000   0.000002   0.000037   0.000000  -0.000027
   65  C  5  Z   -0.000000   0.000000   0.000000   0.000040  -0.000000
   66  C  5  S    0.000010  -0.000041  -0.000728   0.000000   0.000370
   67  C  5  X    0.000002  -0.000027  -0.000600   0.000000   0.000178
   68  C  5  Y   -0.000001   0.000019   0.000263   0.000000  -0.000177
   69  C  5  Z   -0.000000   0.000000   0.000000  -0.000046  -0.000000
   70  C  5 XX   -0.000002  -0.000001  -0.000020   0.000000   0.000021
   71  C  5 YY   -0.000000  -0.000002  -0.000002   0.000000   0.000014
   72  C  5 ZZ   -0.000001   0.000001   0.000001   0.000000   0.000003
   73  C  5 XY   -0.000000   0.000001   0.000012   0.000000  -0.000008
   74  C  5 XZ   -0.000000   0.000000   0.000000   0.000017  -0.000000
   75  C  5 YZ   -0.000000   0.000000   0.000000  -0.000002  -0.000000
   76  BR 6  S    0.994958   0.311905  -0.000265   0.000000  -0.000009
   77  BR 6  S   -0.020281   1.027672  -0.000887   0.000000  -0.000023
   78  BR 6  X   -0.000005   0.000687   0.777853   0.000000   0.622280
   79  BR 6  Y    0.000004  -0.000521  -0.622238   0.000000   0.777883
   80  BR 6  Z   -0.000000   0.000000   0.000000   0.996142  -0.000000
   81  BR 6  S   -0.030436  -0.024015   0.000380   0.000000  -0.000046
   82  BR 6  X    0.000005   0.000036   0.008199   0.000000   0.006449
   83  BR 6  Y   -0.000004  -0.000029  -0.006590   0.000000   0.008103
   84  BR 6  Z   -0.000000   0.000000   0.000000   0.010410  -0.000000
   85  BR 6  S   -0.000658  -0.000064   0.001642   0.000000  -0.000280
   86  BR 6  X   -0.000012  -0.000024  -0.001931   0.000000  -0.001151
   87  BR 6  Y    0.000012   0.000027   0.001695   0.000000  -0.001677
   88  BR 6  Z   -0.000000   0.000000   0.000000  -0.002179  -0.000000
   89  BR 6  S   -0.000095  -0.000154   0.000108   0.000000   0.000306
   90  BR 6  X   -0.000007   0.000033   0.000490   0.000000   0.000463
   91  BR 6  Y    0.000004  -0.000035  -0.000464   0.000000   0.000828
   92  BR 6  Z   -0.000000   0.000000   0.000000   0.000764  -0.000000
   93  BR 6 XX   -0.014693  -0.020011   0.000147   0.000000  -0.000081
   94  BR 6 YY   -0.014693  -0.019989   0.000168   0.000000   0.000018
   95  BR 6 ZZ   -0.014694  -0.020001   0.000199   0.000000  -0.000030
   96  BR 6 XY   -0.000002   0.000056   0.000029   0.000000  -0.000015
   97  BR 6 XZ   -0.000000   0.000000   0.000000  -0.000032  -0.000000
   98  BR 6 YZ   -0.000000   0.000000   0.000000   0.000019  -0.000000
   99  BR 6 XX   -0.002775  -0.001881   0.000341   0.000000  -0.000074
  100  BR 6 YY   -0.002774  -0.001888   0.000347   0.000000  -0.000086
  101  BR 6 ZZ   -0.002772  -0.001884   0.000376   0.000000  -0.000079
  102  BR 6 XY    0.000005  -0.000016   0.000083   0.000000   0.000004
  103  BR 6 XZ   -0.000000   0.000000   0.000000  -0.000034  -0.000000
  104  BR 6 YZ   -0.000000   0.000000   0.000000   0.000045  -0.000000
  105  BR 6 XX   -0.000067   0.000080   0.000966   0.000000  -0.000202
  106  BR 6 YY   -0.000070   0.000085   0.000944   0.000000  -0.000264
  107  BR 6 ZZ   -0.000076   0.000081   0.000778   0.000000  -0.000217
  108  BR 6 XY   -0.000014   0.000005  -0.000341   0.000000   0.000023
  109  BR 6 XZ   -0.000000   0.000000   0.000000   0.000169  -0.000000
  110  BR 6 YZ   -0.000000   0.000000   0.000000  -0.000196  -0.000000
  111  H  7  S    0.000001  -0.000005  -0.000060   0.000013   0.000026
  112  H  7  S    0.000003  -0.000002  -0.000166   0.000158   0.000353
  113  H  8  S    0.000001  -0.000005  -0.000060  -0.000013   0.000026
  114  H  8  S    0.000003  -0.000002  -0.000166  -0.000158   0.000353
  115  H  9  S   -0.000000   0.000002   0.000031  -0.000017  -0.000010
  116  H  9  S   -0.000002   0.000012   0.000154  -0.000060  -0.000137
  117  H 10  S   -0.000000   0.000002   0.000031   0.000017  -0.000010
  118  H 10  S   -0.000002   0.000012   0.000154   0.000060  -0.000137
  119  H 11  S   -0.000001  -0.000008  -0.000118   0.000083   0.000072
  120  H 11  S    0.000005   0.000007  -0.000239  -0.000040  -0.000142
  121  H 12  S   -0.000001  -0.000008  -0.000118  -0.000083   0.000072
  122  H 12  S    0.000005   0.000007  -0.000239   0.000040  -0.000142
  123  H 13  S   -0.000000  -0.000001  -0.000021   0.000000   0.000000
  124  H 13  S   -0.000001  -0.000012  -0.000246   0.000000   0.000095
  125  H 14  S   -0.000000   0.000004   0.000077   0.000000  -0.000029
  126  H 14  S   -0.000002   0.000006   0.000189   0.000000  -0.000026

                      6          7          8          9         10
                  -10.4670   -10.4667   -10.3718   -10.3718   -10.3530
                     A'         A''        A''        A'         A'  
    1  C  1  S    0.702178   0.702270  -0.001169  -0.001160  -0.000001
    2  C  1  S    0.035572   0.035599  -0.000156  -0.000352  -0.000188
    3  C  1  X    0.000794   0.000613  -0.000023  -0.000090   0.000006
    4  C  1  Y   -0.000359  -0.000288  -0.000118  -0.000099  -0.000082
    5  C  1  Z   -0.000578  -0.000518  -0.000111   0.000086  -0.000061
    6  C  1  S   -0.010268  -0.018014   0.004441   0.003802  -0.000080
    7  C  1  X   -0.002524  -0.002021   0.000527   0.000637  -0.000140
    8  C  1  Y   -0.000495  -0.001979   0.001853   0.001989   0.000025
    9  C  1  Z    0.000764   0.004008   0.000447   0.000358   0.000093
   10  C  1 XX   -0.006315  -0.006258  -0.000088  -0.000169  -0.000093
   11  C  1 YY   -0.006261  -0.006329  -0.000346  -0.000308   0.000057
   12  C  1 ZZ   -0.006539  -0.005996  -0.000152  -0.000119  -0.000009
   13  C  1 XY    0.000140   0.000066  -0.000097  -0.000062   0.000009
   14  C  1 XZ   -0.000087  -0.000043  -0.000040  -0.000081   0.000025
   15  C  1 YZ   -0.000095  -0.000011  -0.000085  -0.000085  -0.000065
   16  C  2  S    0.702178  -0.702270   0.001169  -0.001160  -0.000001
   17  C  2  S    0.035572  -0.035599   0.000156  -0.000352  -0.000188
   18  C  2  X    0.000794  -0.000613   0.000023  -0.000090   0.000006
   19  C  2  Y   -0.000359   0.000288   0.000118  -0.000099  -0.000082
   20  C  2  Z    0.000578  -0.000518  -0.000111  -0.000086   0.000061
   21  C  2  S   -0.010268   0.018014  -0.004441   0.003802  -0.000080
   22  C  2  X   -0.002524   0.002021  -0.000527   0.000637  -0.000140
   23  C  2  Y   -0.000495   0.001979  -0.001853   0.001989   0.000025
   24  C  2  Z   -0.000764   0.004008   0.000447  -0.000358  -0.000093
   25  C  2 XX   -0.006315   0.006258   0.000088  -0.000169  -0.000093
   26  C  2 YY   -0.006261   0.006329   0.000346  -0.000308   0.000057
   27  C  2 ZZ   -0.006539   0.005996   0.000152  -0.000119  -0.000009
   28  C  2 XY    0.000140  -0.000066   0.000097  -0.000062   0.000009
   29  C  2 XZ    0.000087  -0.000043  -0.000040   0.000081  -0.000025
   30  C  2 YZ    0.000095  -0.000011  -0.000085   0.000085   0.000065
   31  C  3  S    0.000911   0.000973   0.702177   0.702140  -0.005740
   32  C  3  S   -0.000403  -0.000223   0.035906   0.035797  -0.000612
   33  C  3  X   -0.000052  -0.000011  -0.000062  -0.000141   0.000020
   34  C  3  Y    0.000083  -0.000037  -0.000237  -0.000345  -0.000029
   35  C  3  Z    0.000013   0.000044  -0.000225  -0.000128   0.000069
   36  C  3  S    0.004259   0.004820  -0.014681  -0.015419   0.005687
   37  C  3  X    0.001036  -0.000266   0.000293   0.000786  -0.000212
   38  C  3  Y   -0.001516  -0.001758   0.000527   0.000606   0.001329
   39  C  3  Z   -0.001026  -0.001428   0.001360   0.001851  -0.002075
   40  C  3 XX   -0.000184  -0.000077  -0.006240  -0.006306  -0.000065
   41  C  3 YY   -0.000285  -0.000224  -0.006359  -0.006386  -0.000256
   42  C  3 ZZ   -0.000074  -0.000169  -0.006432  -0.006384  -0.000304
   43  C  3 XY   -0.000080  -0.000113  -0.000007  -0.000011  -0.000002
   44  C  3 XZ   -0.000003   0.000032  -0.000009  -0.000040  -0.000008
   45  C  3 YZ    0.000017  -0.000002   0.000042   0.000073   0.000171
   46  C  4  S    0.000911  -0.000973  -0.702177   0.702140  -0.005740
   47  C  4  S   -0.000403   0.000223  -0.035906   0.035797  -0.000612
   48  C  4  X   -0.000052   0.000011   0.000062  -0.000141   0.000020
   49  C  4  Y    0.000083   0.000037   0.000237  -0.000345  -0.000029
   50  C  4  Z   -0.000013   0.000044  -0.000225   0.000128  -0.000069
   51  C  4  S    0.004259  -0.004820   0.014681  -0.015419   0.005687
   52  C  4  X    0.001036   0.000266  -0.000293   0.000786  -0.000212
   53  C  4  Y   -0.001516   0.001758  -0.000527   0.000606   0.001329
   54  C  4  Z    0.001026  -0.001428   0.001360  -0.001851   0.002075
   55  C  4 XX   -0.000184   0.000077   0.006240  -0.006306  -0.000065
   56  C  4 YY   -0.000285   0.000224   0.006359  -0.006386  -0.000256
   57  C  4 ZZ   -0.000074   0.000169   0.006432  -0.006384  -0.000304
   58  C  4 XY   -0.000080   0.000113   0.000007  -0.000011  -0.000002
   59  C  4 XZ    0.000003   0.000032  -0.000009   0.000040   0.000008
   60  C  4 YZ   -0.000017  -0.000002   0.000042  -0.000073  -0.000171
   61  C  5  S   -0.000064  -0.000000  -0.000000   0.007711   0.993002
   62  C  5  S   -0.000251  -0.000000  -0.000000  -0.000165   0.050396
   63  C  5  X    0.000178  -0.000000  -0.000000  -0.000043  -0.000052
   64  C  5  Y    0.000085  -0.000000  -0.000000   0.000036  -0.000332
   65  C  5  Z   -0.000000  -0.000151  -0.000026   0.000000   0.000000
   66  C  5  S   -0.000477  -0.000000  -0.000000   0.008587  -0.020400
   67  C  5  X   -0.001809  -0.000000  -0.000000   0.000207   0.000212
   68  C  5  Y   -0.000070  -0.000000  -0.000000  -0.002587   0.002060
   69  C  5  Z   -0.000000  -0.000145   0.002653   0.000000   0.000000
   70  C  5 XX   -0.000105  -0.000000  -0.000000  -0.000248  -0.008837
   71  C  5 YY    0.000095  -0.000000  -0.000000  -0.000423  -0.008971
   72  C  5 ZZ   -0.000052  -0.000000  -0.000000  -0.000554  -0.009047
   73  C  5 XY    0.000046  -0.000000  -0.000000  -0.000006   0.000047
   74  C  5 XZ   -0.000000  -0.000014  -0.000023   0.000000   0.000000
   75  C  5 YZ   -0.000000  -0.000000   0.000177   0.000000   0.000000
   76  BR 6  S    0.000003  -0.000000  -0.000000  -0.000003   0.000000
   77  BR 6  S   -0.000000  -0.000000  -0.000000   0.000027  -0.000002
   78  BR 6  X   -0.000015  -0.000000  -0.000000   0.000007  -0.000002
   79  BR 6  Y    0.000028  -0.000000  -0.000000  -0.000014  -0.000002
   80  BR 6  Z   -0.000000   0.000031  -0.000003   0.000000   0.000000
   81  BR 6  S   -0.000004  -0.000000  -0.000000   0.000125  -0.000021
   82  BR 6  X    0.000059  -0.000000  -0.000000  -0.000026   0.000006
   83  BR 6  Y   -0.000107  -0.000000  -0.000000   0.000051   0.000006
   84  BR 6  Z   -0.000000  -0.000112   0.000013   0.000000   0.000000
   85  BR 6  S   -0.000240  -0.000000  -0.000000   0.000003  -0.000120
   86  BR 6  X   -0.000742  -0.000000  -0.000000   0.000194  -0.000027
   87  BR 6  Y    0.000886  -0.000000  -0.000000  -0.000380  -0.000001
   88  BR 6  Z   -0.000000   0.000721  -0.000095   0.000000   0.000000
   89  BR 6  S    0.003564  -0.000000  -0.000000   0.001348   0.000033
   90  BR 6  X   -0.001477  -0.000000  -0.000000  -0.000607  -0.000066
   91  BR 6  Y    0.001387  -0.000000  -0.000000   0.000651  -0.000049
   92  BR 6  Z   -0.000000   0.000960   0.000026   0.000000   0.000000
   93  BR 6 XX    0.000002  -0.000000  -0.000000   0.000008  -0.000002
   94  BR 6 YY    0.000026  -0.000000  -0.000000   0.000015  -0.000011
   95  BR 6 ZZ    0.000029  -0.000000  -0.000000  -0.000007  -0.000004
   96  BR 6 XY    0.000007  -0.000000  -0.000000  -0.000006  -0.000002
   97  BR 6 XZ   -0.000000  -0.000004   0.000000   0.000000   0.000000
   98  BR 6 YZ   -0.000000   0.000017   0.000005   0.000000   0.000000
   99  BR 6 XX    0.000099  -0.000000  -0.000000  -0.000092  -0.000034
  100  BR 6 YY   -0.000013  -0.000000  -0.000000  -0.000123   0.000010
  101  BR 6 ZZ   -0.000021  -0.000000  -0.000000  -0.000022  -0.000025
  102  BR 6 XY   -0.000022  -0.000000  -0.000000   0.000027   0.000008
  103  BR 6 XZ   -0.000000   0.000021  -0.000002   0.000000   0.000000
  104  BR 6 YZ   -0.000000  -0.000086  -0.000022   0.000000   0.000000
  105  BR 6 XX   -0.000025  -0.000000  -0.000000  -0.000320   0.000028
  106  BR 6 YY    0.000318  -0.000000  -0.000000  -0.000307  -0.000112
  107  BR 6 ZZ    0.000161  -0.000000  -0.000000  -0.000533  -0.000003
  108  BR 6 XY   -0.000253  -0.000000  -0.000000  -0.000014  -0.000027
  109  BR 6 XZ   -0.000000  -0.000294   0.000033   0.000000   0.000000
  110  BR 6 YZ   -0.000000   0.000495   0.000013   0.000000   0.000000
  111  H  7  S   -0.000319  -0.000102  -0.000118  -0.000064   0.000000
  112  H  7  S    0.000630   0.000635  -0.000095   0.000100  -0.000068
  113  H  8  S   -0.000319   0.000102   0.000118  -0.000064   0.000000
  114  H  8  S    0.000630  -0.000635   0.000095   0.000100  -0.000068
  115  H  9  S   -0.000007  -0.000093   0.000070   0.000069  -0.000187
  116  H  9  S    0.000328   0.000146   0.001788   0.002043  -0.000194
  117  H 10  S   -0.000007   0.000093  -0.000070   0.000069  -0.000187
  118  H 10  S    0.000328  -0.000146  -0.001788   0.002043  -0.000194
  119  H 11  S   -0.000265  -0.000215   0.000070   0.000095  -0.000235
  120  H 11  S   -0.000800   0.000029   0.002071   0.001571   0.000039
  121  H 12  S   -0.000265   0.000215  -0.000070   0.000095  -0.000235
  122  H 12  S   -0.000800  -0.000029  -0.002071   0.001571   0.000039
  123  H 13  S   -0.000164  -0.000000  -0.000000  -0.000331   0.000119
  124  H 13  S   -0.000726  -0.000000  -0.000000   0.000050   0.002916
  125  H 14  S    0.000152  -0.000000  -0.000000  -0.000288   0.000043
  126  H 14  S    0.000804  -0.000000  -0.000000  -0.000177   0.002552

                     11         12         13         14         15
                   -8.9643    -6.7938    -6.7856    -6.7779    -2.8885
                     A'         A'         A''        A'         A'  
    1  C  1  S   -0.000000  -0.000164   0.000192   0.000049   0.000564
    2  C  1  S   -0.000184  -0.001425   0.001172   0.000246  -0.001395
    3  C  1  X    0.000027   0.000122   0.000036   0.000125   0.000024
    4  C  1  Y   -0.000059  -0.000316   0.000098   0.000079  -0.000074
    5  C  1  Z    0.000041   0.000246   0.000056  -0.000218   0.000529
    6  C  1  S    0.000327   0.003085  -0.008079  -0.000411   0.003758
    7  C  1  X    0.000276   0.002442  -0.002114  -0.000960   0.002861
    8  C  1  Y    0.000280   0.000325  -0.001222  -0.001227  -0.004219
    9  C  1  Z   -0.000180  -0.001310   0.003362   0.000724  -0.002730
   10  C  1 XX    0.000031   0.000177   0.000153  -0.000035   0.000177
   11  C  1 YY    0.000023   0.000025   0.000117   0.000129   0.000099
   12  C  1 ZZ   -0.000028  -0.000199   0.000134   0.000079   0.000028
   13  C  1 XY   -0.000061  -0.000486   0.000149  -0.000043  -0.000127
   14  C  1 XZ   -0.000039  -0.000298   0.000128  -0.000020  -0.000295
   15  C  1 YZ    0.000057   0.000354  -0.000083  -0.000039   0.000207
   16  C  2  S   -0.000000  -0.000164  -0.000192   0.000049   0.000564
   17  C  2  S   -0.000184  -0.001425  -0.001172   0.000246  -0.001395
   18  C  2  X    0.000027   0.000122  -0.000036   0.000125   0.000024
   19  C  2  Y   -0.000059  -0.000316  -0.000098   0.000079  -0.000074
   20  C  2  Z   -0.000041  -0.000246   0.000056   0.000218  -0.000529
   21  C  2  S    0.000327   0.003085   0.008079  -0.000411   0.003758
   22  C  2  X    0.000276   0.002442   0.002114  -0.000960   0.002861
   23  C  2  Y    0.000280   0.000325   0.001222  -0.001227  -0.004219
   24  C  2  Z    0.000180   0.001310   0.003362  -0.000724   0.002730
   25  C  2 XX    0.000031   0.000177  -0.000153  -0.000035   0.000177
   26  C  2 YY    0.000023   0.000025  -0.000117   0.000129   0.000099
   27  C  2 ZZ   -0.000028  -0.000199  -0.000134   0.000079   0.000028
   28  C  2 XY   -0.000061  -0.000486  -0.000149  -0.000043  -0.000127
   29  C  2 XZ    0.000039   0.000298   0.000128   0.000020   0.000295
   30  C  2 YZ   -0.000057  -0.000354  -0.000083   0.000039  -0.000207
   31  C  3  S    0.000017   0.000084  -0.000031  -0.000037  -0.000187
   32  C  3  S    0.000118   0.000504  -0.000222  -0.000248  -0.000821
   33  C  3  X    0.000023   0.000138  -0.000061   0.000006  -0.000063
   34  C  3  Y    0.000006   0.000096  -0.000127  -0.000030   0.000414
   35  C  3  Z   -0.000006   0.000055  -0.000053   0.000039   0.000322
   36  C  3  S   -0.000637  -0.003288   0.002288   0.001449   0.005549
   37  C  3  X   -0.000196  -0.001547   0.000266   0.000108  -0.000872
   38  C  3  Y    0.000284   0.001071  -0.001404  -0.000789  -0.001759
   39  C  3  Z    0.000390   0.001327  -0.001028  -0.001291  -0.002586
   40  C  3 XX    0.000020   0.000121  -0.000021  -0.000068  -0.000246
   41  C  3 YY   -0.000014  -0.000005   0.000089   0.000033  -0.000326
   42  C  3 ZZ   -0.000002  -0.000018  -0.000019   0.000040  -0.000373
   43  C  3 XY    0.000009   0.000057  -0.000084  -0.000052   0.000068
   44  C  3 XZ   -0.000008  -0.000027   0.000067   0.000006   0.000052
   45  C  3 YZ   -0.000028  -0.000113   0.000118   0.000077  -0.000136
   46  C  4  S    0.000017   0.000084   0.000031  -0.000037  -0.000187
   47  C  4  S    0.000118   0.000504   0.000222  -0.000248  -0.000821
   48  C  4  X    0.000023   0.000138   0.000061   0.000006  -0.000063
   49  C  4  Y    0.000006   0.000096   0.000127  -0.000030   0.000414
   50  C  4  Z    0.000006  -0.000055  -0.000053  -0.000039  -0.000322
   51  C  4  S   -0.000637  -0.003288  -0.002288   0.001449   0.005549
   52  C  4  X   -0.000196  -0.001547  -0.000266   0.000108  -0.000872
   53  C  4  Y    0.000284   0.001071   0.001404  -0.000789  -0.001759
   54  C  4  Z   -0.000390  -0.001327  -0.001028   0.001291   0.002586
   55  C  4 XX    0.000020   0.000121   0.000021  -0.000068  -0.000246
   56  C  4 YY   -0.000014  -0.000005  -0.000089   0.000033  -0.000326
   57  C  4 ZZ   -0.000002  -0.000018   0.000019   0.000040  -0.000373
   58  C  4 XY    0.000009   0.000057   0.000084  -0.000052   0.000068
   59  C  4 XZ    0.000008   0.000027   0.000067  -0.000006  -0.000052
   60  C  4 YZ    0.000028   0.000113   0.000118  -0.000077   0.000136
   61  C  5  S    0.000004   0.000018  -0.000000  -0.000020   0.000094
   62  C  5  S    0.000005   0.000052  -0.000000  -0.000061   0.000506
   63  C  5  X   -0.000024  -0.000110  -0.000000   0.000004  -0.000015
   64  C  5  Y   -0.000024  -0.000095  -0.000000   0.000079   0.000175
   65  C  5  Z    0.000000   0.000000  -0.000113  -0.000000   0.000000
   66  C  5  S    0.000272   0.001093  -0.000000  -0.000639  -0.004671
   67  C  5  X    0.000287   0.001535  -0.000000  -0.000295   0.000045
   68  C  5  Y   -0.000159  -0.000449  -0.000000   0.000381   0.002216
   69  C  5  Z    0.000000   0.000000   0.000306  -0.000000   0.000000
   70  C  5 XX    0.000019   0.000091  -0.000000  -0.000081   0.000150
   71  C  5 YY    0.000018   0.000018  -0.000000  -0.000040  -0.000157
   72  C  5 ZZ    0.000004   0.000037  -0.000000  -0.000033   0.000124
   73  C  5 XY   -0.000005  -0.000025  -0.000000   0.000016   0.000052
   74  C  5 XZ    0.000000   0.000000  -0.000039  -0.000000   0.000000
   75  C  5 YZ    0.000000   0.000000   0.000003  -0.000000   0.000000
   76  BR 6  S   -0.124306   0.000759  -0.000000   0.000015   0.000338
   77  BR 6  S   -0.479774   0.003026  -0.000000   0.000024   0.001054
   78  BR 6  X   -0.001808  -0.318367  -0.000000  -0.255710   0.001249
   79  BR 6  Y    0.001390   0.255539  -0.000000  -0.318512  -0.000997
   80  BR 6  Z    0.000000   0.000000  -0.408393  -0.000000   0.000000
   81  BR 6  S    1.072266  -0.006785  -0.000000  -0.000149  -0.004133
   82  BR 6  X    0.004679   0.834988  -0.000000   0.670854  -0.003638
   83  BR 6  Y   -0.003587  -0.670182  -0.000000   0.835580   0.002893
   84  BR 6  Z    0.000000   0.000000   1.071271  -0.000000   0.000000
   85  BR 6  S   -0.002416  -0.004634  -0.000000   0.000623   0.000648
   86  BR 6  X    0.000590   0.014608  -0.000000   0.009728   0.002773
   87  BR 6  Y   -0.000596  -0.012166  -0.000000   0.012813  -0.001905
   88  BR 6  Z    0.000000   0.000000   0.017057  -0.000000   0.000000
   89  BR 6  S    0.002209  -0.000337  -0.000000  -0.001039  -0.015744
   90  BR 6  X   -0.000370  -0.003070  -0.000000  -0.002403   0.008402
   91  BR 6  Y    0.000398   0.002678  -0.000000  -0.003850  -0.007310
   92  BR 6  Z    0.000000   0.000000  -0.004196  -0.000000   0.000000
   93  BR 6 XX   -0.005452  -0.000844  -0.000000  -0.001376  -0.357514
   94  BR 6 YY   -0.005078  -0.000181  -0.000000   0.001404  -0.158863
   95  BR 6 ZZ   -0.005256   0.001012  -0.000000   0.000039   0.516229
   96  BR 6 XY    0.000965   0.001604  -0.000000  -0.000385   0.527207
   97  BR 6 XZ    0.000000   0.000000  -0.001250  -0.000000   0.000000
   98  BR 6 YZ    0.000000   0.000000   0.000968  -0.000000   0.000000
   99  BR 6 XX   -0.007270  -0.001811  -0.000000  -0.000938  -0.185740
  100  BR 6 YY   -0.006867  -0.001346  -0.000000   0.001292  -0.082698
  101  BR 6 ZZ   -0.007028  -0.000431  -0.000000   0.000193   0.267995
  102  BR 6 XY    0.001029   0.000955  -0.000000  -0.000303   0.273407
  103  BR 6 XZ    0.000000   0.000000  -0.000792  -0.000000   0.000000
  104  BR 6 YZ    0.000000   0.000000   0.000575  -0.000000   0.000000
  105  BR 6 XX   -0.003230  -0.003051  -0.000000   0.000463  -0.023221
  106  BR 6 YY   -0.003258  -0.002890  -0.000000   0.000822  -0.009172
  107  BR 6 ZZ   -0.003150  -0.002275  -0.000000   0.000575   0.035736
  108  BR 6 XY    0.000089   0.001289  -0.000000  -0.000071   0.037555
  109  BR 6 XZ    0.000000   0.000000  -0.000606  -0.000000   0.000000
  110  BR 6 YZ    0.000000   0.000000   0.000653  -0.000000   0.000000
  111  H  7  S    0.000041   0.000077  -0.000002  -0.000085  -0.000438
  112  H  7  S   -0.000004   0.000316  -0.000278  -0.001284   0.001486
  113  H  8  S    0.000041   0.000077   0.000002  -0.000085  -0.000438
  114  H  8  S   -0.000004   0.000316   0.000278  -0.001284   0.001486
  115  H  9  S   -0.000026  -0.000094   0.000054   0.000029  -0.000086
  116  H  9  S   -0.000122  -0.000422   0.000131   0.000434   0.000634
  117  H 10  S   -0.000026  -0.000094  -0.000054   0.000029  -0.000086
  118  H 10  S   -0.000122  -0.000422  -0.000131   0.000434   0.000634
  119  H 11  S    0.000085   0.000279  -0.000229  -0.000176  -0.000324
  120  H 11  S   -0.000088   0.000667   0.000330   0.000708   0.001205
  121  H 12  S    0.000085   0.000279   0.000229  -0.000176  -0.000324
  122  H 12  S   -0.000088   0.000667  -0.000330   0.000708   0.001205
  123  H 13  S    0.000018   0.000078  -0.000000   0.000001   0.000101
  124  H 13  S    0.000135   0.000661  -0.000000  -0.000215   0.000110
  125  H 14  S   -0.000034  -0.000160  -0.000000   0.000048   0.000085
  126  H 14  S   -0.000059  -0.000462  -0.000000  -0.000025  -0.000061

                     16         17         18         19         20
                   -2.8873    -2.8810    -2.8745    -2.8736    -1.1450
                     A''        A'         A''        A'         A'  
    1  C  1  S    0.000109  -0.000097   0.000188  -0.000130   0.106625
    2  C  1  S   -0.002493  -0.000572   0.001039   0.001193  -0.206760
    3  C  1  X   -0.000786  -0.000386   0.000609   0.000120  -0.051630
    4  C  1  Y    0.000477  -0.000816   0.000743  -0.000249   0.019595
    5  C  1  Z   -0.000080   0.000225   0.000030   0.000276   0.079039
    6  C  1  S    0.014193   0.001980  -0.007968  -0.007071  -0.140119
    7  C  1  X    0.005910   0.002343  -0.005854  -0.001950  -0.014825
    8  C  1  Y   -0.002513   0.004756  -0.008787   0.001417   0.006425
    9  C  1  Z   -0.003684  -0.000381   0.003241  -0.001477   0.012591
   10  C  1 XX   -0.000262   0.000293   0.000175  -0.000046   0.003227
   11  C  1 YY   -0.000293  -0.000514   0.000150   0.000002   0.002176
   12  C  1 ZZ   -0.000769  -0.000197   0.000106   0.000277  -0.004052
   13  C  1 XY   -0.000061   0.000163  -0.000120   0.000076   0.002099
   14  C  1 XZ    0.000089   0.000039   0.000012  -0.000069   0.008797
   15  C  1 YZ   -0.000136   0.000159   0.000005   0.000047  -0.003777
   16  C  2  S   -0.000109  -0.000097  -0.000188  -0.000130   0.106625
   17  C  2  S    0.002493  -0.000572  -0.001039   0.001193  -0.206760
   18  C  2  X    0.000786  -0.000386  -0.000609   0.000120  -0.051630
   19  C  2  Y   -0.000477  -0.000816  -0.000743  -0.000249   0.019595
   20  C  2  Z   -0.000080  -0.000225   0.000030  -0.000276  -0.079039
   21  C  2  S   -0.014193   0.001980   0.007968  -0.007071  -0.140119
   22  C  2  X   -0.005910   0.002343   0.005854  -0.001950  -0.014825
   23  C  2  Y    0.002513   0.004756   0.008787   0.001417   0.006425
   24  C  2  Z   -0.003684   0.000381   0.003241   0.001477  -0.012591
   25  C  2 XX    0.000262   0.000293  -0.000175  -0.000046   0.003227
   26  C  2 YY    0.000293  -0.000514  -0.000150   0.000002   0.002176
   27  C  2 ZZ    0.000769  -0.000197  -0.000106   0.000277  -0.004052
   28  C  2 XY    0.000061   0.000163   0.000120   0.000076   0.002099
   29  C  2 XZ    0.000089  -0.000039   0.000012   0.000069  -0.008797
   30  C  2 YZ   -0.000136  -0.000159   0.000005  -0.000047   0.003777
   31  C  3  S   -0.000020  -0.000008  -0.000037  -0.000072   0.040812
   32  C  3  S    0.000054   0.000135  -0.000401  -0.000366  -0.073371
   33  C  3  X    0.000049  -0.000420   0.000062  -0.000075   0.006721
   34  C  3  Y    0.000452   0.000584  -0.000661  -0.000011   0.031431
   35  C  3  Z    0.000298   0.000308  -0.000315  -0.000086   0.027472
   36  C  3  S   -0.002027  -0.002688   0.007940   0.003198  -0.048089
   37  C  3  X   -0.001580   0.002559  -0.000981   0.000209   0.001419
   38  C  3  Y    0.001110   0.000868  -0.001996  -0.001129   0.002312
   39  C  3  Z   -0.000420  -0.000522  -0.001336   0.000143   0.005782
   40  C  3 XX   -0.000072  -0.000021   0.000047  -0.000127   0.002016
   41  C  3 YY   -0.000361  -0.000231   0.000286   0.000073  -0.003102
   42  C  3 ZZ   -0.000098  -0.000273   0.000099  -0.000100  -0.000777
   43  C  3 XY    0.000229   0.000139  -0.000108   0.000019  -0.001235
   44  C  3 XZ    0.000001   0.000103  -0.000014   0.000026  -0.000945
   45  C  3 YZ   -0.000139  -0.000234   0.000169  -0.000022  -0.003549
   46  C  4  S    0.000020  -0.000008   0.000037  -0.000072   0.040812
   47  C  4  S   -0.000054   0.000135   0.000401  -0.000366  -0.073371
   48  C  4  X   -0.000049  -0.000420  -0.000062  -0.000075   0.006721
   49  C  4  Y   -0.000452   0.000584   0.000661  -0.000011   0.031431
   50  C  4  Z    0.000298  -0.000308  -0.000315   0.000086  -0.027472
   51  C  4  S    0.002027  -0.002688  -0.007940   0.003198  -0.048089
   52  C  4  X    0.001580   0.002559   0.000981   0.000209   0.001419
   53  C  4  Y   -0.001110   0.000868   0.001996  -0.001129   0.002312
   54  C  4  Z   -0.000420   0.000522  -0.001336  -0.000143  -0.005782
   55  C  4 XX    0.000072  -0.000021  -0.000047  -0.000127   0.002016
   56  C  4 YY    0.000361  -0.000231  -0.000286   0.000073  -0.003102
   57  C  4 ZZ    0.000098  -0.000273  -0.000099  -0.000100  -0.000777
   58  C  4 XY   -0.000229   0.000139   0.000108   0.000019  -0.001235
   59  C  4 XZ    0.000001  -0.000103  -0.000014  -0.000026   0.000945
   60  C  4 YZ   -0.000139   0.000234   0.000169   0.000022   0.003549
   61  C  5  S   -0.000000   0.000152  -0.000000   0.000058   0.025118
   62  C  5  S   -0.000000   0.000729  -0.000000   0.000290  -0.046130
   63  C  5  X   -0.000000   0.000051  -0.000000  -0.000065   0.001164
   64  C  5  Y   -0.000000  -0.000122  -0.000000  -0.000071   0.025441
   65  C  5  Z    0.000070   0.000000  -0.000172  -0.000000   0.000000
   66  C  5  S   -0.000000  -0.002821  -0.000000  -0.001217  -0.021272
   67  C  5  X   -0.000000  -0.001246  -0.000000   0.000272  -0.002200
   68  C  5  Y   -0.000000   0.002003  -0.000000   0.001172  -0.000007
   69  C  5  Z   -0.000731   0.000000  -0.000661  -0.000000   0.000000
   70  C  5 XX   -0.000000   0.000334  -0.000000   0.000101   0.001700
   71  C  5 YY   -0.000000  -0.000130  -0.000000  -0.000011  -0.002592
   72  C  5 ZZ   -0.000000   0.000291  -0.000000   0.000073  -0.000446
   73  C  5 XY   -0.000000   0.000033  -0.000000   0.000034  -0.000154
   74  C  5 XZ    0.000083   0.000000   0.000031  -0.000000   0.000000
   75  C  5 YZ    0.000028   0.000000   0.000064  -0.000000   0.000000
   76  BR 6  S   -0.000000   0.000004  -0.000000  -0.000271   0.024153
   77  BR 6  S   -0.000000  -0.000007  -0.000000  -0.000935   0.089437
   78  BR 6  X   -0.000000  -0.000777  -0.000000  -0.000283   0.017457
   79  BR 6  Y   -0.000000  -0.000956  -0.000000   0.000239  -0.015169
   80  BR 6  Z   -0.001209   0.000000   0.000001  -0.000000   0.000000
   81  BR 6  S   -0.000000  -0.000101  -0.000000   0.003046  -0.261661
   82  BR 6  X   -0.000000   0.002215  -0.000000   0.000845  -0.057212
   83  BR 6  Y   -0.000000   0.002733  -0.000000  -0.000706   0.049709
   84  BR 6  Z    0.003500   0.000000  -0.000015  -0.000000   0.000000
   85  BR 6  S   -0.000000   0.000007  -0.000000  -0.000944   0.520179
   86  BR 6  X   -0.000000  -0.001075  -0.000000  -0.000886   0.113737
   87  BR 6  Y   -0.000000  -0.001387  -0.000000   0.000654  -0.098774
   88  BR 6  Z   -0.002651   0.000000   0.000289  -0.000000   0.000000
   89  BR 6  S   -0.000000  -0.000636  -0.000000   0.007650  -0.057396
   90  BR 6  X   -0.000000  -0.001203  -0.000000  -0.004141  -0.005367
   91  BR 6  Y   -0.000000  -0.002103  -0.000000   0.003314   0.005041
   92  BR 6  Z   -0.005332   0.000000   0.000143  -0.000000   0.000000
   93  BR 6 XX   -0.000000   0.632841  -0.000000  -0.173562   0.009971
   94  BR 6 YY   -0.000000  -0.631557  -0.000000  -0.366884   0.004351
   95  BR 6 ZZ   -0.000000  -0.001296  -0.000000   0.540474  -0.005169
   96  BR 6 XY   -0.000000   0.160050  -0.000000  -0.504754  -0.021254
   97  BR 6 XZ    0.582226   0.000000   0.468452  -0.000000   0.000000
   98  BR 6 YZ   -0.467837   0.000000   0.582980  -0.000000   0.000000
   99  BR 6 XX   -0.000000   0.328255  -0.000000  -0.089765   0.000216
  100  BR 6 YY   -0.000000  -0.327468  -0.000000  -0.189779  -0.001496
  101  BR 6 ZZ   -0.000000  -0.000660  -0.000000   0.280269  -0.004811
  102  BR 6 XY   -0.000000   0.082986  -0.000000  -0.261158  -0.006490
  103  BR 6 XZ    0.302085   0.000000   0.242638  -0.000000   0.000000
  104  BR 6 YZ   -0.242698   0.000000   0.301890  -0.000000   0.000000
  105  BR 6 XX   -0.000000   0.041703  -0.000000  -0.010929  -0.011116
  106  BR 6 YY   -0.000000  -0.041510  -0.000000  -0.023835  -0.001712
  107  BR 6 ZZ   -0.000000   0.000255  -0.000000   0.033112   0.013653
  108  BR 6 XY   -0.000000   0.010625  -0.000000  -0.033491   0.033396
  109  BR 6 XZ    0.040145   0.000000   0.029817  -0.000000   0.000000
  110  BR 6 YZ   -0.032467   0.000000   0.037583  -0.000000   0.000000
  111  H  7  S   -0.000668   0.000478  -0.000804   0.000503  -0.037462
  112  H  7  S    0.000694   0.001997  -0.003835   0.000659   0.000105
  113  H  8  S    0.000668   0.000478   0.000804   0.000503  -0.037462
  114  H  8  S   -0.000694   0.001997   0.003835   0.000659   0.000105
  115  H  9  S   -0.000022   0.000335  -0.000284  -0.000127  -0.012383
  116  H  9  S    0.000240   0.001187  -0.000422  -0.000152   0.000500
  117  H 10  S    0.000022   0.000335   0.000284  -0.000127  -0.012383
  118  H 10  S   -0.000240   0.001187   0.000422  -0.000152   0.000500
  119  H 11  S    0.000063  -0.000383   0.000033  -0.000136  -0.015618
  120  H 11  S    0.001506  -0.000218  -0.000409  -0.000900   0.000291
  121  H 12  S   -0.000063  -0.000383  -0.000033  -0.000136  -0.015618
  122  H 12  S   -0.001506  -0.000218   0.000409  -0.000900   0.000291
  123  H 13  S   -0.000000  -0.000080  -0.000000   0.000090  -0.009271
  124  H 13  S   -0.000000  -0.000284  -0.000000   0.000004  -0.000134
  125  H 14  S   -0.000000   0.000171  -0.000000  -0.000038  -0.007076
  126  H 14  S   -0.000000  -0.000124  -0.000000  -0.000223   0.002301

                     21         22         23         24         25
                   -0.9990    -0.9280    -0.8860    -0.7720    -0.7686
                     A'         A''        A'         A''        A'  
    1  C  1  S   -0.035829  -0.091751  -0.094417  -0.092415  -0.011910
    2  C  1  S    0.068339   0.182613   0.197451   0.190789   0.029467
    3  C  1  X   -0.018742   0.022073  -0.056142  -0.039803  -0.058146
    4  C  1  Y    0.105557   0.050293  -0.024808  -0.104503  -0.124598
    5  C  1  Z    0.010482   0.091233  -0.068855   0.099547  -0.133817
    6  C  1  S    0.050797   0.190743   0.180980   0.253897   0.030577
    7  C  1  X    0.001039   0.010886  -0.015145  -0.010938  -0.023870
    8  C  1  Y    0.023635   0.005871  -0.012779  -0.057482  -0.049235
    9  C  1  Z   -0.004325   0.003813  -0.015714   0.020941  -0.039064
   10  C  1 XX   -0.005908  -0.000894  -0.007366   0.002347  -0.003144
   11  C  1 YY    0.003053   0.006245  -0.007533  -0.001467  -0.002981
   12  C  1 ZZ    0.000866  -0.010151   0.009352  -0.008663   0.006061
   13  C  1 XY    0.008746   0.005745   0.004685   0.000894  -0.004232
   14  C  1 XZ    0.002494  -0.002587  -0.003488  -0.009219  -0.003886
   15  C  1 YZ   -0.003567   0.003379  -0.001191  -0.008324  -0.000696
   16  C  2  S   -0.035829   0.091751  -0.094417   0.092415  -0.011910
   17  C  2  S    0.068339  -0.182613   0.197451  -0.190789   0.029467
   18  C  2  X   -0.018742  -0.022073  -0.056142   0.039803  -0.058146
   19  C  2  Y    0.105557  -0.050293  -0.024808   0.104503  -0.124598
   20  C  2  Z   -0.010482   0.091233   0.068855   0.099547   0.133817
   21  C  2  S    0.050797  -0.190743   0.180980  -0.253897   0.030577
   22  C  2  X    0.001039  -0.010886  -0.015145   0.010938  -0.023870
   23  C  2  Y    0.023635  -0.005871  -0.012779   0.057482  -0.049235
   24  C  2  Z    0.004325   0.003813   0.015714   0.020941   0.039064
   25  C  2 XX   -0.005908   0.000894  -0.007366  -0.002347  -0.003144
   26  C  2 YY    0.003053  -0.006245  -0.007533   0.001467  -0.002981
   27  C  2 ZZ    0.000866   0.010151   0.009352   0.008663   0.006061
   28  C  2 XY    0.008746  -0.005745   0.004685  -0.000894  -0.004232
   29  C  2 XZ   -0.002494  -0.002587   0.003488  -0.009219   0.003886
   30  C  2 YZ    0.003567   0.003379   0.001191  -0.008324   0.000696
   31  C  3  S   -0.095310  -0.119355   0.037820   0.077255   0.071772
   32  C  3  S    0.180374   0.230229  -0.072411  -0.153781  -0.145928
   33  C  3  X   -0.017534  -0.018592  -0.025102  -0.030313  -0.016098
   34  C  3  Y    0.000410  -0.050033  -0.082621  -0.101475   0.101053
   35  C  3  Z   -0.051042   0.008522   0.018839  -0.033067  -0.102925
   36  C  3  S    0.137171   0.197871  -0.068272  -0.168834  -0.150532
   37  C  3  X   -0.004170  -0.002827  -0.007924  -0.011991  -0.014451
   38  C  3  Y   -0.000770  -0.010271  -0.017692  -0.027892   0.028072
   39  C  3  Z   -0.006288   0.004673   0.005728  -0.011546  -0.036954
   40  C  3 XX   -0.002281   0.000776  -0.000241  -0.003941  -0.005500
   41  C  3 YY   -0.002466   0.000891   0.004808   0.010370   0.004660
   42  C  3 ZZ    0.003741  -0.004689  -0.004035  -0.001454   0.006678
   43  C  3 XY    0.000938   0.001299   0.004510   0.005552   0.000365
   44  C  3 XZ    0.001340   0.000013   0.001134   0.000613   0.001529
   45  C  3 YZ   -0.000742   0.003923   0.007789   0.000516  -0.009028
   46  C  4  S   -0.095310   0.119355   0.037820  -0.077255   0.071772
   47  C  4  S    0.180374  -0.230229  -0.072411   0.153781  -0.145928
   48  C  4  X   -0.017534   0.018592  -0.025102   0.030313  -0.016098
   49  C  4  Y    0.000410   0.050033  -0.082621   0.101475   0.101053
   50  C  4  Z    0.051042   0.008522  -0.018839  -0.033067   0.102925
   51  C  4  S    0.137171  -0.197871  -0.068272   0.168834  -0.150532
   52  C  4  X   -0.004170   0.002827  -0.007924   0.011991  -0.014451
   53  C  4  Y   -0.000770   0.010271  -0.017692   0.027892   0.028072
   54  C  4  Z    0.006288   0.004673  -0.005728  -0.011546   0.036954
   55  C  4 XX   -0.002281  -0.000776  -0.000241   0.003941  -0.005500
   56  C  4 YY   -0.002466  -0.000891   0.004808  -0.010370   0.004660
   57  C  4 ZZ    0.003741   0.004689  -0.004035   0.001454   0.006678
   58  C  4 XY    0.000938  -0.001299   0.004510  -0.005552   0.000365
   59  C  4 XZ   -0.001340   0.000013  -0.001134   0.000613  -0.001529
   60  C  4 YZ    0.000742   0.003923  -0.007789   0.000516   0.009028
   61  C  5  S   -0.102142   0.000000   0.106263   0.000000  -0.125102
   62  C  5  S    0.189716   0.000000  -0.206191   0.000000   0.248062
   63  C  5  X   -0.003682   0.000000  -0.008802   0.000000  -0.020668
   64  C  5  Y   -0.056783   0.000000  -0.003123   0.000000   0.094645
   65  C  5  Z   -0.000000   0.090255  -0.000000  -0.130536  -0.000000
   66  C  5  S    0.151066   0.000000  -0.181039   0.000000   0.268622
   67  C  5  X   -0.001462   0.000000   0.001347   0.000000  -0.008722
   68  C  5  Y   -0.013227   0.000000  -0.002579   0.000000   0.026232
   69  C  5  Z   -0.000000   0.016501  -0.000000  -0.036704  -0.000000
   70  C  5 XX   -0.003579   0.000000  -0.000973   0.000000   0.006888
   71  C  5 YY    0.003772   0.000000   0.001944   0.000000  -0.002796
   72  C  5 ZZ    0.000552   0.000000   0.001057   0.000000  -0.013744
   73  C  5 XY    0.000549   0.000000   0.000371   0.000000   0.001858
   74  C  5 XZ   -0.000000   0.000289  -0.000000  -0.001398  -0.000000
   75  C  5 YZ   -0.000000  -0.011679  -0.000000   0.009182  -0.000000
   76  BR 6  S    0.022635   0.000000   0.021934   0.000000   0.004661
   77  BR 6  S    0.084102   0.000000   0.081476   0.000000   0.016905
   78  BR 6  X    0.004450   0.000000  -0.016864   0.000000  -0.019396
   79  BR 6  Y   -0.000600   0.000000   0.010176   0.000000   0.003019
   80  BR 6  Z   -0.000000   0.011028  -0.000000   0.023516  -0.000000
   81  BR 6  S   -0.245434   0.000000  -0.238560   0.000000  -0.051970
   82  BR 6  X   -0.014758   0.000000   0.055535   0.000000   0.064238
   83  BR 6  Y    0.002085   0.000000  -0.033500   0.000000  -0.010008
   84  BR 6  Z   -0.000000  -0.036335  -0.000000  -0.077893  -0.000000
   85  BR 6  S    0.509340   0.000000   0.508088   0.000000   0.106245
   86  BR 6  X    0.034703   0.000000  -0.110942   0.000000  -0.137712
   87  BR 6  Y   -0.008506   0.000000   0.066805   0.000000   0.023240
   88  BR 6  Z   -0.000000   0.073014  -0.000000   0.164701  -0.000000
   89  BR 6  S   -0.106217   0.000000  -0.152678   0.000000  -0.065945
   90  BR 6  X    0.005780   0.000000   0.000602   0.000000  -0.010959
   91  BR 6  Y   -0.004104   0.000000  -0.006596   0.000000  -0.012775
   92  BR 6  Z   -0.000000   0.004211  -0.000000   0.018382  -0.000000
   93  BR 6 XX    0.006437   0.000000  -0.004131   0.000000  -0.010017
   94  BR 6 YY   -0.000256   0.000000   0.003840   0.000000   0.005005
   95  BR 6 ZZ    0.002568   0.000000   0.008776   0.000000   0.006464
   96  BR 6 XY   -0.004125   0.000000   0.009571   0.000000   0.007495
   97  BR 6 XZ   -0.000000   0.008198  -0.000000   0.015421  -0.000000
   98  BR 6 YZ   -0.000000  -0.008438  -0.000000  -0.008935  -0.000000
   99  BR 6 XX   -0.001291   0.000000  -0.004352   0.000000  -0.003291
  100  BR 6 YY   -0.003112   0.000000  -0.001921   0.000000   0.001147
  101  BR 6 ZZ   -0.002533   0.000000  -0.000570   0.000000   0.001434
  102  BR 6 XY   -0.001110   0.000000   0.002760   0.000000   0.001642
  103  BR 6 XZ   -0.000000   0.002518  -0.000000   0.004260  -0.000000
  104  BR 6 YZ   -0.000000  -0.002588  -0.000000  -0.002407  -0.000000
  105  BR 6 XX   -0.003294   0.000000   0.018535   0.000000   0.024328
  106  BR 6 YY    0.007706   0.000000   0.006392   0.000000  -0.003622
  107  BR 6 ZZ    0.005404   0.000000  -0.002180   0.000000  -0.006724
  108  BR 6 XY    0.011083   0.000000  -0.011870   0.000000  -0.011623
  109  BR 6 XZ   -0.000000  -0.013158  -0.000000  -0.026450  -0.000000
  110  BR 6 YZ   -0.000000   0.013498  -0.000000   0.015371  -0.000000
  111  H  7  S    0.010773   0.066492   0.073828   0.144232   0.023359
  112  H  7  S    0.007175   0.015429   0.018205   0.051022   0.004794
  113  H  8  S    0.010773  -0.066492   0.073828  -0.144232   0.023359
  114  H  8  S    0.007175  -0.015429   0.018205  -0.051022   0.004794
  115  H  9  S    0.046247   0.074672  -0.025450  -0.078300  -0.068775
  116  H  9  S    0.002983   0.013192  -0.006624  -0.026569  -0.024635
  117  H 10  S    0.046247  -0.074672  -0.025450   0.078300  -0.068775
  118  H 10  S    0.002983  -0.013192  -0.006624   0.026569  -0.024635
  119  H 11  S    0.042483   0.070175  -0.031682  -0.077599  -0.081792
  120  H 11  S    0.003834   0.011122  -0.007316  -0.026074  -0.024831
  121  H 12  S    0.042483  -0.070175  -0.031682   0.077599  -0.081792
  122  H 12  S    0.003834  -0.011122  -0.007316   0.026074  -0.024831
  123  H 13  S    0.048995   0.000000  -0.065799   0.000000   0.121729
  124  H 13  S    0.003650   0.000000  -0.012698   0.000000   0.040546
  125  H 14  S    0.043627   0.000000  -0.071476   0.000000   0.116341
  126  H 14  S    0.003434   0.000000  -0.015982   0.000000   0.041211

                     26         27         28         29         30
                   -0.7293    -0.6743    -0.6194    -0.6158    -0.5843
                     A'         A'         A''        A'         A'' 
    1  C  1  S   -0.012542  -0.011341   0.000550  -0.017164  -0.023744
    2  C  1  S    0.023652   0.017903  -0.013008   0.027348   0.064256
    3  C  1  X   -0.186119  -0.086373   0.185764  -0.079703   0.103686
    4  C  1  Y   -0.124925   0.179016  -0.005496   0.034743   0.280221
    5  C  1  Z    0.204376   0.010118  -0.037945   0.140202   0.013817
    6  C  1  S    0.035150   0.034221   0.071335   0.050276   0.041580
    7  C  1  X   -0.083461  -0.028669   0.119631  -0.027051   0.040870
    8  C  1  Y   -0.067593   0.080900   0.004310   0.017107   0.138641
    9  C  1  Z    0.075589  -0.004350  -0.049414   0.046574   0.008099
   10  C  1 XX   -0.000035  -0.006979   0.007455   0.002043  -0.003893
   11  C  1 YY    0.006427   0.002633  -0.002090  -0.000439   0.001456
   12  C  1 ZZ   -0.002761  -0.001733  -0.005010  -0.006289  -0.005772
   13  C  1 XY    0.004644   0.002220  -0.004553   0.013452   0.003660
   14  C  1 XZ    0.004155   0.004799   0.009394   0.003460   0.007085
   15  C  1 YZ   -0.001563  -0.010434   0.002401  -0.013441   0.013011
   16  C  2  S   -0.012542  -0.011341  -0.000550  -0.017164   0.023744
   17  C  2  S    0.023652   0.017903   0.013008   0.027348  -0.064256
   18  C  2  X   -0.186119  -0.086373  -0.185764  -0.079703  -0.103686
   19  C  2  Y   -0.124925   0.179016   0.005496   0.034743  -0.280221
   20  C  2  Z   -0.204376  -0.010118  -0.037945  -0.140202   0.013817
   21  C  2  S    0.035150   0.034221  -0.071335   0.050276  -0.041580
[...]
    8             0.000129   0.000068   0.000002   0.000001   0.000000
    9             0.000002   0.000009   0.000325   0.000260   0.000001
   10             0.000002   0.000009   0.000325   0.000260   0.000001
   11             0.000002   0.000000   0.000191   0.000269  -0.000004
   12             0.000002   0.000000   0.000191   0.000269  -0.000004
   13             0.000000   0.000000   0.000000  -0.000011   0.000503
   14            -0.000003   0.000000   0.000000   0.000003   0.000564

                     11         12         13         14         15

                  2.000000   2.000000   2.000000   2.000000   2.000000

    1            -0.000012  -0.000208  -0.000085  -0.000026  -0.000331
    2            -0.000012  -0.000208  -0.000085  -0.000026  -0.000331
    3             0.000008   0.000032   0.000013   0.000006  -0.000008
    4             0.000008   0.000032   0.000013   0.000006  -0.000008
    5            -0.000000  -0.000001  -0.000001   0.000002  -0.000005
    6             2.000005   2.000349   2.000145   2.000020   2.000696
    7             0.000001   0.000002  -0.000001   0.000006  -0.000007
    8             0.000001   0.000002  -0.000001   0.000006  -0.000007
    9             0.000000   0.000000   0.000000   0.000000  -0.000000
   10             0.000000   0.000000   0.000000   0.000000  -0.000000
   11             0.000000  -0.000000   0.000001   0.000000  -0.000000
   12             0.000000  -0.000000   0.000001   0.000000  -0.000000
   13             0.000000   0.000000   0.000000   0.000000  -0.000000
   14             0.000001  -0.000000   0.000000   0.000004   0.000000

                     16         17         18         19         20

                  2.000000   2.000000   2.000000   2.000000   2.000000

    1            -0.000316  -0.000150  -0.000092  -0.000052   0.558830
    2            -0.000316  -0.000150  -0.000092  -0.000052   0.558830
    3             0.000017   0.000027   0.000015   0.000004   0.148312
    4             0.000017   0.000027   0.000015   0.000004   0.148312
    5            -0.000002  -0.000013   0.000000  -0.000004   0.095938
    6             2.000611   2.000234   2.000127   2.000098   0.442657
    7            -0.000004   0.000014   0.000013   0.000002   0.015266
    8            -0.000004   0.000014   0.000013   0.000002   0.015266
    9            -0.000000  -0.000000  -0.000000  -0.000000   0.003433
   10            -0.000000  -0.000000  -0.000000  -0.000000   0.003433
   11            -0.000001   0.000002   0.000001  -0.000000   0.003021
   12            -0.000001   0.000002   0.000001  -0.000000   0.003021
   13             0.000000  -0.000000   0.000000  -0.000000   0.001817
   14             0.000000  -0.000005   0.000000  -0.000002   0.001863

                     21         22         23         24         25

                  2.000000   2.000000   2.000000   2.000000   2.000000

    1             0.083207   0.326743   0.322574   0.185503   0.430161
    2             0.083207   0.326743   0.322574   0.185503   0.430161
    3             0.248827   0.511024   0.111504   0.296530   0.235790
    4             0.248827   0.511024   0.111504   0.296530   0.235790
    5             0.294939   0.061915   0.429640   0.513442   0.093171
    6             0.958033   0.009981   0.514794   0.083691   0.041848
    7            -0.000014   0.031006   0.038510   0.003077   0.183329
    8            -0.000014   0.031006   0.038510   0.003077   0.183329
    9             0.015866   0.047936   0.004681   0.061835   0.038029
   10             0.015866   0.047936   0.004681   0.061835   0.038029
   11             0.011038   0.047343   0.007174   0.046375   0.045182
   12             0.011038   0.047343   0.007174   0.046375   0.045182
   13             0.015334   0.000000   0.043300   0.102955   0.000000
   14             0.013846   0.000000   0.043381   0.113274   0.000000

                     26         27         28         29         30

                  2.000000   2.000000   2.000000   2.000000   2.000000

    1             0.516947   0.176077   0.317660   0.104496   0.387241
    2             0.516947   0.176077   0.317660   0.104496   0.387241
    3             0.128151   0.383844   0.237184   0.486041   0.367985
    4             0.128151   0.383844   0.237184   0.486041   0.367985
    5             0.143514   0.252593   0.169135   0.059918   0.043336
    6             0.047285   0.200920   0.320840   0.165760   0.001303
    7             0.182787   0.000028   0.050908   0.001181   0.138737
    8             0.182787   0.000028   0.050908   0.001181   0.138737
    9             0.023881   0.053340   0.062965   0.194472   0.028872
   10             0.023881   0.053340   0.062965   0.194472   0.028872
   11             0.024183   0.105883   0.043021   0.100970   0.054846
   12             0.024183   0.105883   0.043021   0.100970   0.054846
   13             0.046314   0.033410   0.027007   0.000000   0.000000
   14             0.010992   0.074732   0.059541   0.000000   0.000000

                     31         32         33         34         35

                  2.000000   2.000000   2.000000   2.000000   2.000000

    1             0.406714   0.156582   0.019302   0.090737   0.022464
    2             0.406714   0.156582   0.019302   0.090737   0.022464
    3             0.099439   0.201502   0.517535   0.096062   0.204615
    4             0.099439   0.201502   0.517535   0.096062   0.204615
    5             0.321313   0.727953   0.568001   0.051056   0.435852
    6             0.351786   0.115113   0.055686   1.402616   0.249481
    7             0.022801   0.016999   0.003481   0.020489   0.000004
    8             0.022801   0.016999   0.003481   0.020489   0.000004
    9             0.003181   0.002025   0.000516   0.064422   0.159369
   10             0.003181   0.002025   0.000516   0.064422   0.159369
   11             0.049740   0.005127   0.147323   0.001455   0.067876
   12             0.049740   0.005127   0.147323   0.001455   0.067876
   13             0.006419   0.377025   0.000000   0.000000   0.126928
   14             0.156729   0.015438   0.000000   0.000000   0.279084

                     36

                  2.000000

    1             0.029863
    2             0.029863
    3             0.030377
    4             0.030377
    5             0.061128
    6             1.771190
    7             0.012059
    8             0.012059
    9             0.000911
   10             0.000911
   11             0.000474
   12             0.000474
   13             0.000314
   14             0.020001

               ----- POPULATIONS IN EACH AO -----
                             MULLIKEN      LOWDIN
              1  C  1  S      1.99255     1.97750
              2  C  1  S      0.73449     0.39015
              3  C  1  X      0.44507     0.39237
              4  C  1  Y      0.75775     0.67362
              5  C  1  Z      0.75781     0.67711
              6  C  1  S      0.65994     0.31466
              7  C  1  X      0.29618     0.37682
              8  C  1  Y      0.28518     0.37882
              9  C  1  Z      0.18424     0.34960
             10  C  1 XX     -0.01472     0.12851
             11  C  1 YY      0.00513     0.17270
             12  C  1 ZZ      0.00282     0.17438
             13  C  1 XY      0.00831     0.01551
             14  C  1 XZ      0.00707     0.01283
             15  C  1 YZ      0.01157     0.02260
             16  C  2  S      1.99255     1.97750
             17  C  2  S      0.73449     0.39015
             18  C  2  X      0.44507     0.39237
             19  C  2  Y      0.75775     0.67362
             20  C  2  Z      0.75781     0.67711
             21  C  2  S      0.65994     0.31466
             22  C  2  X      0.29618     0.37682
             23  C  2  Y      0.28518     0.37882
             24  C  2  Z      0.18424     0.34960
             25  C  2 XX     -0.01472     0.12851
             26  C  2 YY      0.00513     0.17270
             27  C  2 ZZ      0.00282     0.17438
             28  C  2 XY      0.00831     0.01551
             29  C  2 XZ      0.00707     0.01283
             30  C  2 YZ      0.01157     0.02260
             31  C  3  S      1.99211     1.97745
             32  C  3  S      0.68296     0.36071
             33  C  3  X      0.73167     0.65632
             34  C  3  Y      0.64956     0.58606
             35  C  3  Z      0.73974     0.66354
             36  C  3  S      0.61672     0.31163
             37  C  3  X      0.37465     0.46432
             38  C  3  Y      0.19926     0.35416
             39  C  3  Z      0.29076     0.40493
             40  C  3 XX      0.00744     0.15454
             41  C  3 YY     -0.00501     0.14631
             42  C  3 ZZ      0.00530     0.15583
             43  C  3 XY      0.00327     0.00627
             44  C  3 XZ      0.00828     0.01533
             45  C  3 YZ      0.00698     0.01392
             46  C  4  S      1.99211     1.97745
             47  C  4  S      0.68296     0.36071
             48  C  4  X      0.73167     0.65632
             49  C  4  Y      0.64956     0.58606
             50  C  4  Z      0.73974     0.66354
             51  C  4  S      0.61672     0.31163
             52  C  4  X      0.37465     0.46432
             53  C  4  Y      0.19926     0.35416
             54  C  4  Z      0.29076     0.40493
             55  C  4 XX      0.00744     0.15454
             56  C  4 YY     -0.00501     0.14631
             57  C  4 ZZ      0.00530     0.15583
             58  C  4 XY      0.00327     0.00627
             59  C  4 XZ      0.00828     0.01533
             60  C  4 YZ      0.00698     0.01392
             61  C  5  S      1.99207     1.97754
             62  C  5  S      0.67718     0.35839
             63  C  5  X      0.73590     0.66288
             64  C  5  Y      0.72798     0.65367
             65  C  5  Z      0.64593     0.58324
             66  C  5  S      0.63305     0.31488
             67  C  5  X      0.34039     0.45595
             68  C  5  Y      0.32484     0.42209
             69  C  5  Z      0.21918     0.35944
             70  C  5 XX      0.00808     0.15814
             71  C  5 YY      0.00757     0.15717
             72  C  5 ZZ     -0.00774     0.13978
             73  C  5 XY      0.00439     0.00757
             74  C  5 XZ      0.00481     0.00933
             75  C  5 YZ      0.00805     0.01529
             76  BR 6  S      1.99822     1.99773
             77  BR 6  S      1.98666     1.91076
             78  BR 6  X      1.99969     1.99772
             79  BR 6  Y      1.99977     1.99846
             80  BR 6  Z      1.99976     1.99831
             81  BR 6  S      1.93270     0.77724
             82  BR 6  X      1.99365     1.95490
             83  BR 6  Y      1.99579     1.97146
             84  BR 6  Z      1.99542     1.96802
             85  BR 6  S      1.66112     0.58189
             86  BR 6  X      1.04222     0.91626
             87  BR 6  Y      1.38826     1.25892
             88  BR 6  Z      1.30096     1.18150
             89  BR 6  S      0.31764     0.31955
             90  BR 6  X      0.20838     0.38408
             91  BR 6  Y      0.42993     0.58226
             92  BR 6  Z      0.36808     0.52789
             93  BR 6 XX      0.94957     1.24628
             94  BR 6 YY      0.95022     1.24667
             95  BR 6 ZZ      0.95016     1.24679
             96  BR 6 XY      1.38959     1.34155
             97  BR 6 XZ      1.38924     1.34121
             98  BR 6 YZ      1.39038     1.34232
             99  BR 6 XX      0.40035     0.58373
            100  BR 6 YY      0.39905     0.58136
            101  BR 6 ZZ      0.39956     0.58199
            102  BR 6 XY      0.58332     0.61617
            103  BR 6 XZ      0.58357     0.61632
            104  BR 6 YZ      0.58289     0.61532
            105  BR 6 XX      0.03707     0.29270
            106  BR 6 YY      0.00100     0.28325
            107  BR 6 ZZ      0.00403     0.28759
            108  BR 6 XY      0.03987     0.05637
            109  BR 6 XZ      0.03753     0.05483
            110  BR 6 YZ      0.03032     0.04640
            111  H  7  S      0.51248     0.46756
            112  H  7  S      0.20839     0.30436
            113  H  8  S      0.51248     0.46756
            114  H  8  S      0.20839     0.30436
            115  H  9  S      0.50988     0.47232
            116  H  9  S      0.25645     0.32319
            117  H 10  S      0.50988     0.47232
            118  H 10  S      0.25645     0.32319
            119  H 11  S      0.51504     0.47484
            120  H 11  S      0.24645     0.32228
            121  H 12  S      0.51504     0.47484
            122  H 12  S      0.24645     0.32228
            123  H 13  S      0.52010     0.48205
            124  H 13  S      0.26121     0.32760
            125  H 14  S      0.52269     0.48890
            126  H 14  S      0.26675     0.33216

          ----- MULLIKEN ATOMIC OVERLAP POPULATIONS -----
          (OFF-DIAGONAL ELEMENTS NEED TO BE MULTIPLIED BY 2)

             1           2           3           4           5

    1    5.1977221
    2    0.3116685   5.1977221
    3    0.3596101  -0.0743216   5.0915377
    4   -0.0743216   0.3596101  -0.0493163   5.0915377
    5   -0.0572343  -0.0572343   0.3475017   0.3475017   5.0692121
    6    0.1200028   0.1200028  -0.0353296  -0.0353296   0.0082539
    7    0.3625961  -0.0287508  -0.0235863   0.0026922   0.0037502
    8   -0.0287508   0.3625961   0.0026922  -0.0235863   0.0037502
    9   -0.0338786  -0.0011958   0.3619992   0.0008656  -0.0309205
   10   -0.0011958  -0.0338786   0.0008656   0.3619992  -0.0309205
   11   -0.0299738   0.0045411   0.3789365   0.0039614  -0.0248634
   12    0.0045411  -0.0299738   0.0039614   0.3789365  -0.0248634
   13    0.0045016   0.0045016  -0.0277696  -0.0277696   0.3841376
   14   -0.0019006  -0.0019006  -0.0330630  -0.0330630   0.3836198

             6           7           8           9          10

    6   34.5927496
    7   -0.0185247   0.4261772
    8   -0.0185247  -0.0010090   0.4261772
    9    0.0044324  -0.0020484  -0.0001344   0.4886231
   10    0.0044324  -0.0001344  -0.0020484   0.0014977   0.4886231
   11   -0.0060745  -0.0000411  -0.0000597  -0.0212384  -0.0001213
   12   -0.0060745  -0.0000597  -0.0000411  -0.0001213  -0.0212384
   13   -0.0002282  -0.0000706  -0.0000706  -0.0049080  -0.0049080
   14    0.0061721  -0.0001195  -0.0001195   0.0033577   0.0033577

            11          12          13          14

   11    0.4597753
   12   -0.0000743   0.4597753
   13    0.0009290   0.0009290   0.4751828
   14   -0.0042071  -0.0042071  -0.0231418   0.4946558

          TOTAL MULLIKEN AND LOWDIN ATOMIC POPULATIONS
       ATOM         MULL.POP.    CHARGE          LOW.POP.     CHARGE
    1 C             6.133387   -0.133387         6.057194   -0.057194
    2 C             6.133387   -0.133387         6.057194   -0.057194
    3 C             6.303718   -0.303718         6.271335   -0.271335
    4 C             6.303718   -0.303718         6.271335   -0.271335
    5 C             6.321691   -0.321691         6.275340   -0.275340
    6 BR           34.735960    0.264040        34.707806    0.292194
    7 H             0.720871    0.279129         0.771920    0.228080
    8 H             0.720871    0.279129         0.771920    0.228080
    9 H             0.766330    0.233670         0.795507    0.204493
   10 H             0.766330    0.233670         0.795507    0.204493
   11 H             0.761490    0.238510         0.797117    0.202883
   12 H             0.761490    0.238510         0.797117    0.202883
   13 H             0.781315    0.218685         0.809652    0.190348
   14 H             0.789441    0.210559         0.821058    0.178942

          -------------------------------
          BOND ORDER AND VALENCE ANALYSIS     BOND ORDER THRESHOLD=0.050
          -------------------------------

                   BOND                       BOND                       BOND
  ATOM PAIR DIST  ORDER      ATOM PAIR DIST  ORDER      ATOM PAIR DIST  ORDER
    1   2  1.462  1.015        1   3  1.501  1.023        1   6  2.125  0.714
    1   7  1.087  0.883        2   4  1.501  1.023        2   6  2.125  0.714
    2   8  1.087  0.883        3   5  1.548  0.976        3   9  1.104  0.880
    3  11  1.093  0.908        4   5  1.548  0.976        4  10  1.104  0.880
    4  12  1.093  0.908        5  13  1.092  0.926        5  14  1.094  0.923

                       TOTAL       BONDED        FREE
      ATOM            VALENCE     VALENCE     VALENCE
    1 C                 3.634       3.634      -0.000
    2 C                 3.634       3.634      -0.000
    3 C                 3.774       3.774       0.000
    4 C                 3.774       3.774       0.000
    5 C                 3.799       3.799      -0.000
    6 BR                1.534       1.534       0.000
    7 H                 0.887       0.887       0.000
    8 H                 0.887       0.887       0.000
    9 H                 0.904       0.904       0.000
   10 H                 0.904       0.904       0.000
   11 H                 0.908       0.908       0.000
   12 H                 0.908       0.908       0.000
   13 H                 0.918       0.918      -0.000
   14 H                 0.917       0.917      -0.000

          ---------------------
          ELECTROSTATIC MOMENTS
          ---------------------

 POINT   1           X           Y           Z (BOHR)    CHARGE
                 0.468824    0.320239    0.000000        1.00 (A.U.)
         DX          DY          DZ         /D/  (DEBYE)
    -3.611490    1.711594   -0.000000    3.996551
 ...... END OF PROPERTY EVALUATION ......
 STEP CPU TIME =     0.10 TOTAL CPU TIME =       1886.3 (     31.4 MIN)
 TOTAL WALL CLOCK TIME=       1889.8 SECONDS, CPU UTILIZATION IS    99.82%
  $VIB   
          IVIB=   0 IATOM=   0 ICOORD=   0 E=    -2768.6543595798
  2.409857058E-06 2.071799542E-04 9.993292710E-06 2.409857058E-06 2.071799542E-04
 -9.993292710E-06 7.125130255E-05-1.973927189E-04-9.913410405E-05 7.125130255E-05
 -1.973927189E-04 9.913410405E-05 1.753112286E-04-1.073280693E-04 0.000000000E+00
 -2.191812148E-05-2.207686159E-05 0.000000000E+00-5.957367483E-06-9.201424881E-05
  5.674098814E-05-5.957367483E-06-9.201424881E-05-5.674098814E-05-1.215424046E-04
  9.263437057E-06 1.447432143E-05-1.215424046E-04 9.263437057E-06-1.447432143E-05
  5.847358067E-05 1.566196377E-05 7.889828150E-05 5.847358067E-05 1.566196377E-05
 -7.889828150E-05 2.471139410E-05 2.139446835E-04 0.000000000E+00-1.873744377E-04
  3.006347270E-05 0.000000000E+00
 -3.611490177E+00 1.711594421E+00-2.709050051E-14
 ......END OF GEOMETRY SEARCH......
 STEP CPU TIME =     0.00 TOTAL CPU TIME =       1886.3 (     31.4 MIN)
 TOTAL WALL CLOCK TIME=       1889.8 SECONDS, CPU UTILIZATION IS    99.82%
              1155078  WORDS OF DYNAMIC MEMORY USED
 EXECUTION OF GAMESS TERMINATED NORMALLY Sun Nov 14 23:01:16 2021
 DDI: 263640 bytes (0.3 MB / 0 MWords) used by master data server.

 ----------------------------------------
 CPU timing information for all processes
 ========================================
 0: 1883.269 + 3.47 = 1886.316
 ----------------------------------------
 ddikick.x: exited gracefully.
----- accounting info -----
Files used on the master node chemcompute-node-0.novalocal were:
-rw-r--r--. 1 chemcomp chemcomp      901 Nov 14 22:29 /scratch/306552/342563.F05
-rw-rw-r--. 1 chemcomp chemcomp 57344000 Nov 14 23:01 /scratch/306552/342563.F10
-rw-rw-r--. 1 chemcomp chemcomp  6989360 Nov 14 22:59 /scratch/306552/342563.F22
Sun Nov 14 23:01:20 UTC 2021
0.119u 0.091s 31:33.44 0.0%	0+0k 8+216io 0pf+0w
Finishing Up...
Looking for IR data...
Looking for Raman data...
vibramans not found
Looking for thermodynamics data...
Looking for UV-Vis data...
306552
